
     Program PWSCF v.6.3 starts on 24Oct2019 at  0:32:59 

     This program is part of the open-source Quantum ESPRESSO suite
     for quantum simulation of materials; please cite
         "P. Giannozzi et al., J. Phys.:Condens. Matter 21 395502 (2009);
         "P. Giannozzi et al., J. Phys.:Condens. Matter 29 465901 (2017);
          URL http://www.quantum-espresso.org", 
     in publications or presentations arising from this work. More details at
     http://www.quantum-espresso.org/quote

     Parallel version (MPI & OpenMP), running on      20 processor cores
     Number of MPI processes:                20
     Threads/MPI process:                     1

     MPI processes distributed on     1 nodes
     R & G space division:  proc/nbgrp/npool/nimage =      20
     Reading input from /rds/homes/b/bxp912/jobs/20191024_test1/wd/runpwscf/file_10232.in
Warning: card &IONS ignored
Warning: card ION_DYNAMICS = 'BFGS', ignored
Warning: card / ignored
Warning: card &CELL ignored
Warning: card CELL_DYNAMICS = 'BFGS', ignored
Warning: card CELL_FACTOR = 2.0, ignored
Warning: card PRESS = 0.0, ignored
Warning: card / ignored

     Current dimensions of program PWSCF are:
     Max number of different atomic species (ntypx) = 10
     Max number of k-points (npk) =  40000
     Max angular momentum in pseudopotentials (lmaxx) =  3
     Message from routine read_upf::
     Pseudo file /rds/homes/b/bxp912/pp/Al.pbe-nl-kjpaw_psl.1.0.0.UPF has been successfully fixed on the fly.
To avoid this message in the future you can permanently fix 
 your pseudo files following instructions given in: 
https://gitlab.com/QEF/q-e/blob/master/upftools/how_to_fix_upf.md
               file Al.pbe-nl-kjpaw_psl.1.0.0.UPF: wavefunction(s)  3S 3P renormalized

     Subspace diagonalization in iterative solution of the eigenvalue problem:
     a serial algorithm will be used

 
     Parallelization info
     --------------------
     sticks:   dense  smooth     PW     G-vecs:    dense   smooth      PW
     Min          52      52     20                 1262     1262     300
     Max          53      53     21                 1265     1265     303
     Sum        1041    1041    401                25269    25269    6031
 


     bravais-lattice index     =            0
     lattice parameter (alat)  =       8.0800  a.u.
     unit-cell volume          =     527.5141 (a.u.)^3
     number of atoms/cell      =           32
     number of atomic types    =            1
     number of electrons       =        96.00
     number of Kohn-Sham states=           58
     kinetic-energy cutoff     =      66.0000  Ry
     charge density cutoff     =     200.0000  Ry
     convergence threshold     =      1.0E-06
     mixing beta               =       0.1000
     number of iterations used =           10  TF        mixing
     Exchange-correlation      = SLA PW PBX PBC ( 1  4  3  4 0 0)

     celldm(1)=   8.080000  celldm(2)=   0.000000  celldm(3)=   0.000000
     celldm(4)=   0.000000  celldm(5)=   0.000000  celldm(6)=   0.000000

     crystal axes: (cart. coord. in units of alat)
               a(1) = (   1.000000   0.000000   0.000000 )  
               a(2) = (   0.000000   1.000000   0.000000 )  
               a(3) = (   0.000000   0.000000   1.000000 )  

     reciprocal axes: (cart. coord. in units 2 pi/alat)
               b(1) = (  1.000000  0.000000  0.000000 )  
               b(2) = (  0.000000  1.000000  0.000000 )  
               b(3) = (  0.000000  0.000000  1.000000 )  


     PseudoPot. # 1 for Al read from file:
     /rds/homes/b/bxp912/pp/Al.pbe-nl-kjpaw_psl.1.0.0.UPF
     MD5 check sum: 339dbea23cf3ab9a065ad45c0f9085d7
     Pseudo is Projector augmented-wave + core cor, Zval =  3.0
     Generated using "atomic" code by A. Dal Corso v.5.1
     Shape of augmentation charge: PSQ
     Using radial grid of 1135 points,  4 beta functions with: 
                l(1) =   0
                l(2) =   0
                l(3) =   1
                l(4) =   1
     Q(r) pseudized with 0 coefficients 


     atomic species   valence    mass     pseudopotential
        Al             3.00    26.98200     Al( 1.00)

     No symmetry found



   Cartesian axes

     site n.     atom                  positions (alat units)
         1           Al  tau(   1) = (  -0.0000618   0.0000180   0.0001286  )
         2           Al  tau(   2) = (   0.2501504   0.2496409   0.0001329  )
         3           Al  tau(   3) = (   0.2498245   0.0000576   0.2505585  )
         4           Al  tau(   4) = (  -0.0000378   0.2504134   0.2503472  )
         5           Al  tau(   5) = (   0.0004835   0.0004765   0.4997751  )
         6           Al  tau(   6) = (   0.2502257   0.2496836   0.5000068  )
         7           Al  tau(   7) = (   0.2500525   0.0002908   0.7497884  )
         8           Al  tau(   8) = (   0.0001038   0.2502148   0.7503971  )
         9           Al  tau(   9) = (   0.0004488   0.5002037  -0.0000292  )
        10           Al  tau(  10) = (   0.2502638   0.7503330   0.0007661  )
        11           Al  tau(  11) = (   0.2503574   0.5002057   0.2504745  )
        12           Al  tau(  12) = (   0.0000725   0.7500861   0.2500479  )
        13           Al  tau(  13) = (   0.0002082   0.5002952   0.5001871  )
        14           Al  tau(  14) = (   0.2499320   0.7501195   0.4997555  )
        15           Al  tau(  15) = (   0.2506361   0.4996019   0.7494255  )
        16           Al  tau(  16) = (  -0.0006199   0.7494434   0.7499870  )
        17           Al  tau(  17) = (   0.5003850  -0.0001898  -0.0000732  )
        18           Al  tau(  18) = (   0.7498343   0.2501778  -0.0004407  )
        19           Al  tau(  19) = (   0.7493109  -0.0001812   0.2501458  )
        20           Al  tau(  20) = (   0.4999530   0.2499270   0.2496819  )
        21           Al  tau(  21) = (   0.4998509   0.0005536   0.4999482  )
        22           Al  tau(  22) = (   0.7501292   0.2494251   0.4999098  )
        23           Al  tau(  23) = (   0.7500676  -0.0001298   0.7500485  )
        24           Al  tau(  24) = (   0.5000215   0.2497853   0.7499902  )
        25           Al  tau(  25) = (   0.4997214   0.5002185  -0.0004144  )
        26           Al  tau(  26) = (   0.7495697   0.7501849   0.0005172  )
        27           Al  tau(  27) = (   0.7501903   0.4996254   0.2498983  )
        28           Al  tau(  28) = (   0.5001659   0.7496046   0.2503955  )
        29           Al  tau(  29) = (   0.4993878   0.5001941   0.5000764  )
        30           Al  tau(  30) = (   0.7503133   0.7499759   0.4997253  )
        31           Al  tau(  31) = (   0.7499001   0.5000179   0.7502634  )
        32           Al  tau(  32) = (   0.5000268   0.7499029   0.7498445  )

     number of k points=    14  Marzari-Vanderbilt smearing, width (Ry)=  0.0020
                       cart. coord. in units 2pi/alat
        k(    1) = (   0.1666667   0.1666667   0.1666667), wk =   0.1481481
        k(    2) = (   0.1666667   0.1666667  -0.5000000), wk =   0.1481481
        k(    3) = (   0.1666667  -0.5000000  -0.5000000), wk =   0.1481481
        k(    4) = (  -0.5000000  -0.5000000  -0.5000000), wk =   0.0740741
        k(    5) = (  -0.1666667  -0.1666667   0.1666667), wk =   0.1481481
        k(    6) = (  -0.1666667   0.1666667  -0.1666667), wk =   0.1481481
        k(    7) = (   0.1666667  -0.1666667  -0.1666667), wk =   0.1481481
        k(    8) = (  -0.1666667   0.1666667   0.5000000), wk =   0.1481481
        k(    9) = (  -0.5000000  -0.1666667   0.1666667), wk =   0.1481481
        k(   10) = (   0.5000000  -0.1666667  -0.1666667), wk =   0.1481481
        k(   11) = (  -0.1666667  -0.5000000   0.1666667), wk =   0.1481481
        k(   12) = (  -0.1666667   0.5000000  -0.1666667), wk =   0.1481481
        k(   13) = (  -0.5000000   0.1666667   0.5000000), wk =   0.1481481
        k(   14) = (  -0.5000000   0.5000000   0.1666667), wk =   0.1481481

     Dense  grid:    25269 G-vectors     FFT dimensions: (  40,  40,  40)

     Estimated max dynamical RAM per process >      10.55 MB

     Estimated total dynamical RAM >     210.93 MB

     Initial potential from superposition of free atoms

     starting charge   95.92671, renormalised to   96.00000
     Starting wfcs are  128 randomized atomic wfcs
     Checking if some PAW data can be deallocated... 

     total cpu time spent up to now is        1.9 secs

     Self-consistent Calculation

     iteration #  1     ecut=    66.00 Ry     beta= 0.10
     Davidson diagonalization with overlap
     ethr =  1.00E-02,  avg # of iterations =  5.5

     total cpu time spent up to now is        3.6 secs

     total energy              =   -1133.21514350 Ry
     Harris-Foulkes estimate   =   -1134.45763385 Ry
     estimated scf accuracy    <       1.39295036 Ry

     iteration #  2     ecut=    66.00 Ry     beta= 0.10
     Davidson diagonalization with overlap
     ethr =  1.45E-03,  avg # of iterations =  2.8

     total cpu time spent up to now is        4.4 secs

     total energy              =   -1129.55520832 Ry
     Harris-Foulkes estimate   =   -1133.30540739 Ry
     estimated scf accuracy    <       1.21261965 Ry

     iteration #  3     ecut=    66.00 Ry     beta= 0.10
     Davidson diagonalization with overlap
     ethr =  1.26E-03,  avg # of iterations =  3.9

     total cpu time spent up to now is        5.6 secs

     total energy              =   -1130.04612752 Ry
     Harris-Foulkes estimate   =   -1130.53498074 Ry
     estimated scf accuracy    <       0.20023154 Ry

     iteration #  4     ecut=    66.00 Ry     beta= 0.10
     Davidson diagonalization with overlap
     ethr =  2.09E-04,  avg # of iterations =  3.4

     total cpu time spent up to now is        6.5 secs

     total energy              =   -1129.96558976 Ry
     Harris-Foulkes estimate   =   -1130.07589438 Ry
     estimated scf accuracy    <       0.11620224 Ry

     iteration #  5     ecut=    66.00 Ry     beta= 0.10
     Davidson diagonalization with overlap
     ethr =  1.21E-04,  avg # of iterations =  2.4

     total cpu time spent up to now is        7.3 secs

     total energy              =   -1129.98996909 Ry
     Harris-Foulkes estimate   =   -1129.97825769 Ry
     estimated scf accuracy    <       0.01505918 Ry

     iteration #  6     ecut=    66.00 Ry     beta= 0.10
     Davidson diagonalization with overlap
     ethr =  1.57E-05,  avg # of iterations =  8.5

     total cpu time spent up to now is        9.2 secs

     total energy              =   -1129.99889361 Ry
     Harris-Foulkes estimate   =   -1129.99864076 Ry
     estimated scf accuracy    <       0.00635147 Ry

     iteration #  7     ecut=    66.00 Ry     beta= 0.10
     Davidson diagonalization with overlap
     ethr =  6.62E-06,  avg # of iterations =  3.4

     total cpu time spent up to now is       10.1 secs

     total energy              =   -1129.99947600 Ry
     Harris-Foulkes estimate   =   -1130.00002927 Ry
     estimated scf accuracy    <       0.00900168 Ry

     iteration #  8     ecut=    66.00 Ry     beta= 0.10
     Davidson diagonalization with overlap
     ethr =  6.62E-06,  avg # of iterations =  1.0

     total cpu time spent up to now is       10.7 secs

     total energy              =   -1129.99705945 Ry
     Harris-Foulkes estimate   =   -1129.99954553 Ry
     estimated scf accuracy    <       0.00525289 Ry

     iteration #  9     ecut=    66.00 Ry     beta= 0.10
     Davidson diagonalization with overlap
     ethr =  5.47E-06,  avg # of iterations =  1.0

     total cpu time spent up to now is       11.3 secs

     total energy              =   -1129.99805538 Ry
     Harris-Foulkes estimate   =   -1129.99748637 Ry
     estimated scf accuracy    <       0.00047617 Ry

     iteration # 10     ecut=    66.00 Ry     beta= 0.10
     Davidson diagonalization with overlap
     ethr =  4.96E-07,  avg # of iterations =  8.8

     total cpu time spent up to now is       12.8 secs

     total energy              =   -1129.99752209 Ry
     Harris-Foulkes estimate   =   -1129.99812110 Ry
     estimated scf accuracy    <       0.00040564 Ry

     iteration # 11     ecut=    66.00 Ry     beta= 0.10
     Davidson diagonalization with overlap
     ethr =  4.23E-07,  avg # of iterations =  1.0

     total cpu time spent up to now is       13.4 secs

     total energy              =   -1129.99679221 Ry
     Harris-Foulkes estimate   =   -1129.99754350 Ry
     estimated scf accuracy    <       0.00062711 Ry

     iteration # 12     ecut=    66.00 Ry     beta= 0.10
     Davidson diagonalization with overlap
     ethr =  4.23E-07,  avg # of iterations =  1.0

     total cpu time spent up to now is       14.0 secs

     total energy              =   -1129.99589319 Ry
     Harris-Foulkes estimate   =   -1129.99681282 Ry
     estimated scf accuracy    <       0.00021390 Ry

     iteration # 13     ecut=    66.00 Ry     beta= 0.10
     Davidson diagonalization with overlap
     ethr =  2.23E-07,  avg # of iterations =  4.5

     total cpu time spent up to now is       15.2 secs

     total energy              =   -1129.99579625 Ry
     Harris-Foulkes estimate   =   -1129.99595831 Ry
     estimated scf accuracy    <       0.00003737 Ry

     iteration # 14     ecut=    66.00 Ry     beta= 0.10
     Davidson diagonalization with overlap
     ethr =  3.89E-08,  avg # of iterations =  4.2

     total cpu time spent up to now is       16.5 secs

     total energy              =   -1129.99576626 Ry
     Harris-Foulkes estimate   =   -1129.99581493 Ry
     estimated scf accuracy    <       0.00018159 Ry

     iteration # 15     ecut=    66.00 Ry     beta= 0.10
     Davidson diagonalization with overlap
     ethr =  3.89E-08,  avg # of iterations =  2.1

     total cpu time spent up to now is       17.2 secs

     total energy              =   -1129.99577376 Ry
     Harris-Foulkes estimate   =   -1129.99577849 Ry
     estimated scf accuracy    <       0.00000558 Ry

     iteration # 16     ecut=    66.00 Ry     beta= 0.10
     Davidson diagonalization with overlap
     ethr =  5.82E-09,  avg # of iterations =  4.8

     total cpu time spent up to now is       18.4 secs

     total energy              =   -1129.99576712 Ry
     Harris-Foulkes estimate   =   -1129.99577532 Ry
     estimated scf accuracy    <       0.00000127 Ry

     iteration # 17     ecut=    66.00 Ry     beta= 0.10
     Davidson diagonalization with overlap
     ethr =  1.33E-09,  avg # of iterations =  3.1

     total cpu time spent up to now is       19.4 secs

     total energy              =   -1129.99576095 Ry
     Harris-Foulkes estimate   =   -1129.99576736 Ry
     estimated scf accuracy    <       0.00000121 Ry

     iteration # 18     ecut=    66.00 Ry     beta= 0.10
     Davidson diagonalization with overlap
     ethr =  1.26E-09,  avg # of iterations =  3.7

     total cpu time spent up to now is       20.5 secs

     total energy              =   -1129.99576071 Ry
     Harris-Foulkes estimate   =   -1129.99576142 Ry
     estimated scf accuracy    <       0.00000324 Ry

     iteration # 19     ecut=    66.00 Ry     beta= 0.10
     Davidson diagonalization with overlap
     ethr =  1.26E-09,  avg # of iterations =  1.0

     total cpu time spent up to now is       21.1 secs

     End of self-consistent calculation

          k = 0.1667 0.1667 0.1667 (  4788 PWs)   bands (ev):

    30.0783  34.7213  34.7321  34.7407  37.8740  37.8814  37.8875  38.6104
    38.6205  38.6286  41.0700  41.0739  41.0776  41.4039  41.4091  41.4119
    41.4175  41.4250  41.4272  41.6476  43.6289  43.6334  43.6372  44.1640
    44.1676  44.1736  44.1770  44.1832  44.1889  44.3420  44.3539  44.3651
    46.8476  46.8598  46.8720  49.3948  52.2213  52.2237  52.2247  52.2871
    52.2922  52.2962  52.3881  52.3904  52.3928  52.3938  52.3973  52.4005
    53.9192  53.9263  53.9299  53.9347  53.9388  53.9458  53.9484  53.9542
    53.9563  53.9586

          k = 0.1667 0.1667-0.5000 (  4798 PWs)   bands (ev):

    31.8106  31.8198  36.1524  36.1586  36.1644  36.1671  39.2196  39.2239
    39.2274  39.2306  39.6782  39.6856  40.1790  40.1920  42.4750  42.4822
    42.4851  42.4894  42.5247  42.5268  42.5282  42.5324  43.5384  43.5405
    43.5503  43.5533  44.6275  44.6288  44.6355  44.6386  44.7626  44.7640
    47.9714  47.9897  50.0568  50.0696  50.0793  50.0866  51.3892  51.3971
    51.4034  51.4130  52.2958  52.2983  52.3006  52.3039  52.3301  52.3432
    52.3511  52.3630  52.6535  52.6666  53.9148  53.9417  54.3182  54.3193
    54.3201  54.3226

          k = 0.1667-0.5000-0.5000 (  4724 PWs)   bands (ev):

    33.4092  33.4146  33.4234  33.4276  37.4124  37.4173  37.4252  37.4290
    40.4202  40.4237  40.4298  40.4326  41.5624  41.5711  41.5828  41.5844
    41.5869  41.5895  41.5956  41.6031  43.7767  43.7783  43.7816  43.7838
    44.6516  44.6567  44.6671  44.6676  44.6686  44.6719  44.6750  44.6811
    49.0466  49.0544  49.0608  49.0690  49.0742  49.0780  49.0831  49.0928
    51.4770  51.4808  51.4879  51.4925  52.8323  52.8362  52.8438  52.8497
    53.2491  53.2534  53.2608  53.2664  53.2761  53.2805  53.2888  53.2946
    54.7053  54.7075

          k =-0.5000-0.5000-0.5000 (  4776 PWs)   bands (ev):

    34.8498  34.8599  34.8616  34.8690  34.8726  34.8750  34.8856  34.8880
    42.8571  42.8610  42.8661  42.8719  42.8775  42.8795  42.8809  42.8832
    42.8843  42.8858  42.8874  42.8894  42.8940  42.8982  42.8994  42.9034
    42.9042  42.9082  42.9084  42.9156  42.9182  42.9201  42.9228  42.9277
    50.9973  51.0090  51.0140  51.0190  51.0217  51.0268  51.0311  51.0356
    51.0360  51.0387  51.0404  51.0434  51.0466  51.0483  51.0519  51.0583
    51.0594  51.0671  51.0675  51.0739  51.0777  51.0825  51.0893  51.0910
    58.6637  58.6676

          k =-0.1667-0.1667 0.1667 (  4788 PWs)   bands (ev):

    30.0783  34.7230  34.7320  34.7390  37.8752  37.8815  37.8863  38.6119
    38.6205  38.6270  41.0716  41.0738  41.0762  41.3979  41.4079  41.4127
    41.4135  41.4271  41.4358  41.6473  43.6293  43.6335  43.6366  44.1642
    44.1692  44.1746  44.1769  44.1825  44.1877  44.3466  44.3534  44.3604
    46.8524  46.8597  46.8673  49.3949  52.2222  52.2231  52.2246  52.2887
    52.2914  52.2946  52.3894  52.3908  52.3916  52.3955  52.3971  52.3987
    53.9174  53.9226  53.9323  53.9403  53.9441  53.9467  53.9510  53.9557
    53.9597  53.9667

          k =-0.1667 0.1667-0.1667 (  4788 PWs)   bands (ev):

    30.0783  34.7220  34.7313  34.7407  37.8746  37.8810  37.8875  38.6110
    38.6198  38.6287  41.0698  41.0739  41.0780  41.3963  41.4058  41.4156
    41.4199  41.4263  41.4313  41.6471  43.6292  43.6331  43.6372  44.1648
    44.1696  44.1731  44.1779  44.1825  44.1868  44.3412  44.3537  44.3658
    46.8466  46.8598  46.8730  49.3949  52.2216  52.2230  52.2249  52.2875
    52.2929  52.2960  52.3882  52.3911  52.3935  52.3946  52.3962  52.3983
    53.9174  53.9264  53.9324  53.9380  53.9407  53.9443  53.9484  53.9507
    53.9569  53.9610

          k = 0.1667-0.1667-0.1667 (  4788 PWs)   bands (ev):

    30.0783  34.7207  34.7338  34.7396  37.8733  37.8828  37.8866  38.6101
    38.6222  38.6275  41.0693  41.0738  41.0784  41.3960  41.4082  41.4140
    41.4188  41.4252  41.4324  41.6477  43.6282  43.6343  43.6366  44.1654
    44.1681  44.1716  44.1775  44.1828  44.1891  44.3403  44.3537  44.3673
    46.8452  46.8597  46.8745  49.3947  52.2215  52.2232  52.2245  52.2867
    52.2912  52.2962  52.3879  52.3899  52.3918  52.3968  52.3977  52.4004
    53.9166  53.9262  53.9309  53.9360  53.9407  53.9433  53.9524  53.9546
    53.9563  53.9612

          k =-0.1667 0.1667 0.5000 (  4798 PWs)   bands (ev):

    31.8106  31.8198  36.1508  36.1605  36.1616  36.1695  39.2183  39.2252
    39.2260  39.2321  39.6783  39.6857  40.1790  40.1920  42.4721  42.4763
    42.4886  42.4948  42.5225  42.5270  42.5293  42.5335  43.5389  43.5402
    43.5509  43.5525  44.6267  44.6296  44.6351  44.6390  44.7626  44.7640
    47.9715  47.9897  50.0538  50.0678  50.0778  50.0930  51.3923  51.3956
    51.4049  51.4097  52.2947  52.2991  52.3002  52.3057  52.3357  52.3415
    52.3527  52.3566  52.6535  52.6669  53.9147  53.9416  54.3169  54.3190
    54.3212  54.3231

          k =-0.5000-0.1667 0.1667 (  4798 PWs)   bands (ev):

    31.8100  31.8204  36.1513  36.1576  36.1615  36.1721  39.2188  39.2230
    39.2263  39.2339  39.6777  39.6857  40.1786  40.1927  42.4707  42.4844
    42.4870  42.4890  42.5247  42.5260  42.5275  42.5343  43.5386  43.5396
    43.5514  43.5533  44.6251  44.6300  44.6362  44.6387  44.7627  44.7643
    47.9705  47.9907  50.0511  50.0742  50.0793  50.0875  51.3901  51.3956
    51.4069  51.4102  52.2938  52.2998  52.3014  52.3038  52.3340  52.3397
    52.3528  52.3605  52.6521  52.6686  53.9135  53.9431  54.3178  54.3185
    54.3201  54.3238

          k = 0.5000-0.1667-0.1667 (  4798 PWs)   bands (ev):

    31.8100  31.8204  36.1505  36.1579  36.1610  36.1731  39.2174  39.2228
    39.2255  39.2354  39.6783  39.6861  40.1786  40.1927  42.4730  42.4776
    42.4871  42.4925  42.5237  42.5274  42.5296  42.5328  43.5372  43.5403
    43.5497  43.5556  44.6250  44.6307  44.6357  44.6387  44.7627  44.7642
    47.9704  47.9907  50.0544  50.0685  50.0769  50.0929  51.3873  51.3967
    51.4028  51.4158  52.2948  52.2991  52.3004  52.3059  52.3223  52.3449
    52.3511  52.3672  52.6521  52.6686  53.9135  53.9430  54.3171  54.3192
    54.3210  54.3226

          k =-0.1667-0.5000 0.1667 (  4798 PWs)   bands (ev):

    31.8139  31.8165  36.1498  36.1571  36.1664  36.1692  39.2163  39.2232
    39.2294  39.2328  39.6809  39.6829  40.1835  40.1877  42.4811  42.4818
    42.4836  42.4845  42.5270  42.5275  42.5288  42.5293  43.5400  43.5457
    43.5472  43.5498  44.6292  44.6297  44.6333  44.6379  44.7633  44.7634
    47.9777  47.9833  50.0692  50.0708  50.0757  50.0771  51.3912  51.3991
    51.4035  51.4087  52.2982  52.2989  52.3007  52.3012  52.3311  52.3432
    52.3491  52.3633  52.6573  52.6629  53.9241  53.9327  54.3193  54.3197
    54.3203  54.3209

          k =-0.1667 0.5000-0.1667 (  4798 PWs)   bands (ev):

    31.8139  31.8165  36.1508  36.1553  36.1672  36.1692  39.2184  39.2216
    39.2303  39.2316  39.6807  39.6827  40.1835  40.1876  42.4744  42.4830
    42.4841  42.4901  42.5250  42.5270  42.5280  42.5322  43.5421  43.5450
    43.5466  43.5489  44.6283  44.6305  44.6339  44.6375  44.7632  44.7635
    47.9778  47.9834  50.0603  50.0751  50.0758  50.0810  51.3966  51.3995
    51.4007  51.4055  52.2961  52.3003  52.3011  52.3022  52.3391  52.3454
    52.3497  52.3530  52.6572  52.6629  53.9241  53.9327  54.3181  54.3193
    54.3202  54.3226

          k =-0.5000 0.1667 0.5000 (  4724 PWs)   bands (ev):

    33.4058  33.4139  33.4226  33.4326  37.4093  37.4166  37.4245  37.4334
    40.4177  40.4232  40.4292  40.4359  41.5674  41.5745  41.5759  41.5819
    41.5850  41.5925  41.5956  41.6033  43.7745  43.7795  43.7810  43.7852
    44.6551  44.6592  44.6610  44.6654  44.6683  44.6733  44.6769  44.6806
    49.0399  49.0542  49.0645  49.0677  49.0697  49.0814  49.0898  49.0914
    51.4725  51.4830  51.4870  51.4961  52.8259  52.8382  52.8435  52.8536
    53.2508  53.2557  53.2611  53.2649  53.2736  53.2790  53.2875  53.2976
    54.7020  54.7084

          k =-0.5000 0.5000 0.1667 (  4724 PWs)   bands (ev):

    33.4122  33.4131  33.4224  33.4271  37.4151  37.4160  37.4243  37.4286
    40.4221  40.4227  40.4289  40.4321  41.5661  41.5689  41.5759  41.5837
    41.5863  41.5958  41.5987  41.6009  43.7765  43.7785  43.7820  43.7831
    44.6544  44.6552  44.6621  44.6674  44.6688  44.6752  44.6767  44.6800
    49.0498  49.0553  49.0639  49.0674  49.0688  49.0768  49.0847  49.0921
    51.4769  51.4809  51.4893  51.4914  52.8310  52.8362  52.8460  52.8485
    53.2461  53.2573  53.2633  53.2652  53.2725  53.2818  53.2858  53.2979
    54.7045  54.7069

     the Fermi energy is    52.4093 ev

!    total energy              =   -1129.99576039 Ry
     Harris-Foulkes estimate   =   -1129.99576083 Ry
     estimated scf accuracy    <       0.00000062 Ry

     total all-electron energy =    -15406.564782 Ry

     The total energy is the sum of the following terms:

     one-electron contribution =     469.33235824 Ry
     hartree contribution      =       1.72887654 Ry
     xc contribution           =    -138.29599264 Ry
     ewald contribution        =    -326.84024986 Ry
     one-center paw contrib.   =   -1135.92083303 Ry
     smearing contrib. (-TS)   =       0.00008035 Ry

     convergence has been achieved in  19 iterations

     Forces acting on atoms (cartesian axes, Ry/au):

     atom    1 type  1   force =    -0.00083713   -0.00810703    0.00049149
     atom    2 type  1   force =    -0.00418446   -0.00524989    0.01229894
     atom    3 type  1   force =     0.01090976    0.00334283   -0.01918731
     atom    4 type  1   force =    -0.00846460    0.00910913   -0.02983600
     atom    5 type  1   force =    -0.01699320   -0.01039698    0.01664803
     atom    6 type  1   force =    -0.01358138    0.00521626   -0.00626449
     atom    7 type  1   force =    -0.01736497   -0.03390641    0.01063575
     atom    8 type  1   force =    -0.00831950    0.01255833    0.00210747
     atom    9 type  1   force =     0.02399019    0.00767457   -0.00377109
     atom   10 type  1   force =    -0.00629623    0.01433459   -0.02320948
     atom   11 type  1   force =    -0.00710113   -0.02156349   -0.01159527
     atom   12 type  1   force =    -0.01864752   -0.01121503   -0.01073339
     atom   13 type  1   force =    -0.00222975   -0.01897828    0.00861611
     atom   14 type  1   force =    -0.01252382    0.02431867    0.01617172
     atom   15 type  1   force =    -0.01613679    0.01792364    0.01602449
     atom   16 type  1   force =     0.02165308    0.00914797    0.01502317
     atom   17 type  1   force =    -0.01780953   -0.00834397   -0.00273954
     atom   18 type  1   force =     0.00893965   -0.00315097    0.01385700
     atom   19 type  1   force =     0.02073420    0.01527904   -0.00437427
     atom   20 type  1   force =     0.00938832    0.02319629   -0.01068995
     atom   21 type  1   force =     0.00716928   -0.02040087    0.01119765
     atom   22 type  1   force =     0.00129281    0.02331160    0.01228549
     atom   23 type  1   force =     0.01456910   -0.01015032   -0.01102047
     atom   24 type  1   force =     0.01562193    0.00454098    0.00617103
     atom   25 type  1   force =    -0.01659865    0.00235328    0.00217135
     atom   26 type  1   force =     0.01070644   -0.00767156    0.00662526
     atom   27 type  1   force =    -0.01123075   -0.01054483    0.00360339
     atom   28 type  1   force =     0.00840488   -0.00115530    0.00722705
     atom   29 type  1   force =     0.03445134   -0.01890095    0.00645135
     atom   30 type  1   force =    -0.00130924    0.00726962   -0.00376581
     atom   31 type  1   force =    -0.01016367   -0.00468616   -0.01695492
     atom   32 type  1   force =     0.00196136    0.01484527   -0.01346476

     Total force =     0.133198     Total SCF correction =     0.000674


     Computing stress (Cartesian axis) and pressure

          total   stress  (Ry/bohr**3)                   (kbar)     P=59715.62
   0.40591881  -0.00000424   0.00001994      59712.71     -0.62      2.93
  -0.00000424   0.40594881  -0.00000509         -0.62  59717.12     -0.75
   0.00001994  -0.00000509   0.40594816          2.93     -0.75  59717.03


     Writing output data file fe_scf_fcc_2.save/
 
     init_run     :      0.64s CPU      0.82s WALL (       1 calls)
     electrons    :     18.45s CPU     19.53s WALL (       1 calls)
     forces       :      0.11s CPU      0.13s WALL (       1 calls)
     stress       :      0.21s CPU      0.26s WALL (       1 calls)

     Called by init_run:
     wfcinit      :      0.50s CPU      0.58s WALL (       1 calls)
     potinit      :      0.07s CPU      0.10s WALL (       1 calls)
     hinit0       :      0.06s CPU      0.09s WALL (       1 calls)

     Called by electrons:
     c_bands      :     15.83s CPU     16.40s WALL (      19 calls)
     sum_band     :      1.47s CPU      1.55s WALL (      19 calls)
     v_of_rho     :      0.04s CPU      0.05s WALL (      20 calls)
     newd         :      0.03s CPU      0.05s WALL (      20 calls)
     PAW_pot      :      1.09s CPU      1.11s WALL (      20 calls)
     mix_rho      :      0.02s CPU      0.03s WALL (      19 calls)

     Called by c_bands:
     init_us_2    :      0.11s CPU      0.11s WALL (     574 calls)
     cegterg      :     15.32s CPU     15.88s WALL (     266 calls)

     Called by sum_band:
     sum_band:bec :      0.02s CPU      0.02s WALL (     266 calls)
     addusdens    :      0.02s CPU      0.02s WALL (      19 calls)

     Called by *egterg:
     h_psi        :      7.06s CPU      7.49s WALL (    1207 calls)
     s_psi        :      0.44s CPU      0.45s WALL (    1207 calls)
     g_psi        :      0.02s CPU      0.02s WALL (     927 calls)
     cdiaghg      :      6.78s CPU      6.83s WALL (    1193 calls)

     Called by h_psi:
     h_psi:pot    :      7.04s CPU      7.47s WALL (    1207 calls)
     h_psi:calbec :      0.75s CPU      0.89s WALL (    1207 calls)
     vloc_psi     :      5.81s CPU      6.08s WALL (    1207 calls)
     add_vuspsi   :      0.47s CPU      0.49s WALL (    1207 calls)

     General routines
     calbec       :      1.10s CPU      1.30s WALL (    1543 calls)
     fft          :      0.08s CPU      0.11s WALL (     246 calls)
     ffts         :      0.00s CPU      0.00s WALL (      19 calls)
     fftw         :      6.52s CPU      6.81s WALL (   97546 calls)
 
     Parallel routines
     fft_scatt_xy :      0.46s CPU      0.48s WALL (   97811 calls)
     fft_scatt_yz :      4.46s CPU      4.67s WALL (   97811 calls)
 
     PWSCF        :    20.06s CPU        26.42s WALL

 
   This run was terminated on:   0:33:25  24Oct2019            

=------------------------------------------------------------------------------=
   JOB DONE.
=------------------------------------------------------------------------------=
