
     Program PWSCF v.6.3 starts on 24Oct2019 at  1:47:41 

     This program is part of the open-source Quantum ESPRESSO suite
     for quantum simulation of materials; please cite
         "P. Giannozzi et al., J. Phys.:Condens. Matter 21 395502 (2009);
         "P. Giannozzi et al., J. Phys.:Condens. Matter 29 465901 (2017);
          URL http://www.quantum-espresso.org", 
     in publications or presentations arising from this work. More details at
     http://www.quantum-espresso.org/quote

     Parallel version (MPI & OpenMP), running on      20 processor cores
     Number of MPI processes:                20
     Threads/MPI process:                     1

     MPI processes distributed on     1 nodes
     R & G space division:  proc/nbgrp/npool/nimage =      20
     Reading input from /rds/homes/b/bxp912/jobs/20191024_test1/wd/runpwscf/file_10258.in
Warning: card &IONS ignored
Warning: card ION_DYNAMICS = 'BFGS', ignored
Warning: card / ignored
Warning: card &CELL ignored
Warning: card CELL_DYNAMICS = 'BFGS', ignored
Warning: card CELL_FACTOR = 2.0, ignored
Warning: card PRESS = 0.0, ignored
Warning: card / ignored

     Current dimensions of program PWSCF are:
     Max number of different atomic species (ntypx) = 10
     Max number of k-points (npk) =  40000
     Max angular momentum in pseudopotentials (lmaxx) =  3
     Message from routine read_upf::
     Pseudo file /rds/homes/b/bxp912/pp/Al.pbe-nl-kjpaw_psl.1.0.0.UPF has been successfully fixed on the fly.
To avoid this message in the future you can permanently fix 
 your pseudo files following instructions given in: 
https://gitlab.com/QEF/q-e/blob/master/upftools/how_to_fix_upf.md
               file Al.pbe-nl-kjpaw_psl.1.0.0.UPF: wavefunction(s)  3S 3P renormalized

     Subspace diagonalization in iterative solution of the eigenvalue problem:
     a serial algorithm will be used

 
     Parallelization info
     --------------------
     sticks:   dense  smooth     PW     G-vecs:    dense   smooth      PW
     Min          52      52     20                 1262     1262     300
     Max          53      53     21                 1265     1265     303
     Sum        1041    1041    401                25269    25269    6031
 


     bravais-lattice index     =            0
     lattice parameter (alat)  =       8.0800  a.u.
     unit-cell volume          =     527.5141 (a.u.)^3
     number of atoms/cell      =           32
     number of atomic types    =            1
     number of electrons       =        96.00
     number of Kohn-Sham states=           58
     kinetic-energy cutoff     =      66.0000  Ry
     charge density cutoff     =     200.0000  Ry
     convergence threshold     =      1.0E-06
     mixing beta               =       0.1000
     number of iterations used =           10  TF        mixing
     Exchange-correlation      = SLA PW PBX PBC ( 1  4  3  4 0 0)

     celldm(1)=   8.080000  celldm(2)=   0.000000  celldm(3)=   0.000000
     celldm(4)=   0.000000  celldm(5)=   0.000000  celldm(6)=   0.000000

     crystal axes: (cart. coord. in units of alat)
               a(1) = (   1.000000   0.000000   0.000000 )  
               a(2) = (   0.000000   1.000000   0.000000 )  
               a(3) = (   0.000000   0.000000   1.000000 )  

     reciprocal axes: (cart. coord. in units 2 pi/alat)
               b(1) = (  1.000000  0.000000  0.000000 )  
               b(2) = (  0.000000  1.000000  0.000000 )  
               b(3) = (  0.000000  0.000000  1.000000 )  


     PseudoPot. # 1 for Al read from file:
     /rds/homes/b/bxp912/pp/Al.pbe-nl-kjpaw_psl.1.0.0.UPF
     MD5 check sum: 339dbea23cf3ab9a065ad45c0f9085d7
     Pseudo is Projector augmented-wave + core cor, Zval =  3.0
     Generated using "atomic" code by A. Dal Corso v.5.1
     Shape of augmentation charge: PSQ
     Using radial grid of 1135 points,  4 beta functions with: 
                l(1) =   0
                l(2) =   0
                l(3) =   1
                l(4) =   1
     Q(r) pseudized with 0 coefficients 


     atomic species   valence    mass     pseudopotential
        Al             3.00    26.98200     Al( 1.00)

     No symmetry found



   Cartesian axes

     site n.     atom                  positions (alat units)
         1           Al  tau(   1) = (  -0.0000618   0.0000180   0.0001286  )
         2           Al  tau(   2) = (   0.2501504   0.2496409   0.0001329  )
         3           Al  tau(   3) = (   0.2498245   0.0000576   0.2505585  )
         4           Al  tau(   4) = (  -0.0000378   0.2504134   0.2503472  )
         5           Al  tau(   5) = (   0.0004835   0.0004765   0.4997751  )
         6           Al  tau(   6) = (   0.2502257   0.2496836   0.5000068  )
         7           Al  tau(   7) = (   0.2500525   0.0002908   0.7497884  )
         8           Al  tau(   8) = (   0.0001038   0.2502148   0.7503971  )
         9           Al  tau(   9) = (   0.0004488   0.5002037  -0.0000292  )
        10           Al  tau(  10) = (   0.2502638   0.7503330   0.0007661  )
        11           Al  tau(  11) = (   0.2503574   0.5002057   0.2504745  )
        12           Al  tau(  12) = (   0.0000725   0.7500861   0.2500479  )
        13           Al  tau(  13) = (   0.0002082   0.5002952   0.5001871  )
        14           Al  tau(  14) = (   0.2499320   0.7501195   0.4997555  )
        15           Al  tau(  15) = (   0.2506361   0.4996019   0.7494255  )
        16           Al  tau(  16) = (  -0.0006199   0.7494434   0.7499870  )
        17           Al  tau(  17) = (   0.5003850  -0.0001898  -0.0000732  )
        18           Al  tau(  18) = (   0.7498343   0.2501778  -0.0004407  )
        19           Al  tau(  19) = (   0.7493109  -0.0001812   0.2501458  )
        20           Al  tau(  20) = (   0.4999530   0.2499270   0.2496819  )
        21           Al  tau(  21) = (   0.4998509   0.0005536   0.4999482  )
        22           Al  tau(  22) = (   0.7501292   0.2494251   0.4999098  )
        23           Al  tau(  23) = (   0.7500676  -0.0001298   0.7500485  )
        24           Al  tau(  24) = (   0.5000215   0.2497853   0.7499902  )
        25           Al  tau(  25) = (   0.4997214   0.5002185  -0.0004144  )
        26           Al  tau(  26) = (   0.7495697   0.7501849   0.0005172  )
        27           Al  tau(  27) = (   0.7501903   0.4996254   0.2498983  )
        28           Al  tau(  28) = (   0.5001659   0.7496046   0.2503955  )
        29           Al  tau(  29) = (   0.4993878   0.5001941   0.5000764  )
        30           Al  tau(  30) = (   0.7503133   0.7499759   0.4997253  )
        31           Al  tau(  31) = (   0.7499001   0.5000179   0.7502634  )
        32           Al  tau(  32) = (   0.5000268   0.7499029   0.7498445  )

     number of k points=   365  Marzari-Vanderbilt smearing, width (Ry)=  0.0010

     Number of k-points >= 100: set verbosity='high' to print them.

     Dense  grid:    25269 G-vectors     FFT dimensions: (  40,  40,  40)

     Estimated max dynamical RAM per process >      84.48 MB

     Estimated total dynamical RAM >       1.65 GB

     Initial potential from superposition of free atoms

     starting charge   95.92671, renormalised to   96.00000
     Starting wfcs are  128 randomized atomic wfcs
     Checking if some PAW data can be deallocated... 

     total cpu time spent up to now is       13.3 secs

     Self-consistent Calculation

     iteration #  1     ecut=    66.00 Ry     beta= 0.10
     Davidson diagonalization with overlap
     ethr =  1.00E-02,  avg # of iterations =  5.2

     total cpu time spent up to now is       51.7 secs

     total energy              =   -1133.16887700 Ry
     Harris-Foulkes estimate   =   -1134.40453446 Ry
     estimated scf accuracy    <       1.41766740 Ry

     iteration #  2     ecut=    66.00 Ry     beta= 0.10
     Davidson diagonalization with overlap
     ethr =  1.48E-03,  avg # of iterations =  3.2

     total cpu time spent up to now is       72.0 secs

     total energy              =   -1129.59268379 Ry
     Harris-Foulkes estimate   =   -1133.27690503 Ry
     estimated scf accuracy    <       1.23002333 Ry

     iteration #  3     ecut=    66.00 Ry     beta= 0.10
     Davidson diagonalization with overlap
     ethr =  1.28E-03,  avg # of iterations =  4.1

     total cpu time spent up to now is      103.3 secs

     total energy              =   -1130.16458136 Ry
     Harris-Foulkes estimate   =   -1130.58593533 Ry
     estimated scf accuracy    <       0.21093757 Ry

     iteration #  4     ecut=    66.00 Ry     beta= 0.10
     Davidson diagonalization with overlap
     ethr =  2.20E-04,  avg # of iterations =  2.8

     total cpu time spent up to now is      122.6 secs

     total energy              =   -1130.04850101 Ry
     Harris-Foulkes estimate   =   -1130.18030331 Ry
     estimated scf accuracy    <       0.13566511 Ry

     iteration #  5     ecut=    66.00 Ry     beta= 0.10
     Davidson diagonalization with overlap
     ethr =  1.41E-04,  avg # of iterations =  3.9

     total cpu time spent up to now is      152.3 secs

     total energy              =   -1130.02673701 Ry
     Harris-Foulkes estimate   =   -1130.10211169 Ry
     estimated scf accuracy    <       0.01886235 Ry

     iteration #  6     ecut=    66.00 Ry     beta= 0.10
     Davidson diagonalization with overlap
     c_bands:  3 eigenvalues not converged
     c_bands:  3 eigenvalues not converged
     c_bands:  1 eigenvalues not converged
     c_bands:  1 eigenvalues not converged
     c_bands:  2 eigenvalues not converged
     ethr =  1.96E-05,  avg # of iterations =  4.4

     total cpu time spent up to now is      178.6 secs

     total energy              =   -1130.04229853 Ry
     Harris-Foulkes estimate   =   -1130.04463463 Ry
     estimated scf accuracy    <       0.00719097 Ry

     iteration #  7     ecut=    66.00 Ry     beta= 0.10
     Davidson diagonalization with overlap
     c_bands:  2 eigenvalues not converged
     c_bands:  1 eigenvalues not converged
     c_bands:  1 eigenvalues not converged
     ethr =  7.49E-06,  avg # of iterations =  4.3

     total cpu time spent up to now is      202.3 secs

     total energy              =   -1130.03604884 Ry
     Harris-Foulkes estimate   =   -1130.04934722 Ry
     estimated scf accuracy    <       0.00559380 Ry

     iteration #  8     ecut=    66.00 Ry     beta= 0.10
     Davidson diagonalization with overlap
     c_bands:  2 eigenvalues not converged
     c_bands:  1 eigenvalues not converged
     c_bands:  1 eigenvalues not converged
     c_bands:  2 eigenvalues not converged
     c_bands:  1 eigenvalues not converged
     c_bands:  2 eigenvalues not converged
     c_bands:  1 eigenvalues not converged
     c_bands:  1 eigenvalues not converged
     ethr =  5.83E-06,  avg # of iterations =  4.1

     total cpu time spent up to now is      226.2 secs

     total energy              =   -1130.03980187 Ry
     Harris-Foulkes estimate   =   -1130.03886716 Ry
     estimated scf accuracy    <       0.00124910 Ry

     iteration #  9     ecut=    66.00 Ry     beta= 0.10
     Davidson diagonalization with overlap
     c_bands:  1 eigenvalues not converged
     c_bands:  2 eigenvalues not converged
     c_bands:  1 eigenvalues not converged
     c_bands:  2 eigenvalues not converged
     c_bands:  1 eigenvalues not converged
     c_bands:  2 eigenvalues not converged
     c_bands:  1 eigenvalues not converged
     c_bands:  1 eigenvalues not converged
     c_bands:  2 eigenvalues not converged
     c_bands:  2 eigenvalues not converged
     c_bands:  1 eigenvalues not converged
     c_bands:  1 eigenvalues not converged
     c_bands:  1 eigenvalues not converged
     ethr =  1.30E-06,  avg # of iterations =  7.5

     total cpu time spent up to now is      262.7 secs

     total energy              =   -1130.04788094 Ry
     Harris-Foulkes estimate   =   -1130.04795877 Ry
     estimated scf accuracy    <       0.00051204 Ry

     iteration # 10     ecut=    66.00 Ry     beta= 0.10
     Davidson diagonalization with overlap
     c_bands:  1 eigenvalues not converged
     c_bands:  1 eigenvalues not converged
     ethr =  5.33E-07,  avg # of iterations =  1.5

     total cpu time spent up to now is      278.3 secs

     total energy              =   -1130.04625953 Ry
     Harris-Foulkes estimate   =   -1130.04789410 Ry
     estimated scf accuracy    <       0.00052644 Ry

     iteration # 11     ecut=    66.00 Ry     beta= 0.10
     Davidson diagonalization with overlap
     c_bands:  1 eigenvalues not converged
     c_bands:  2 eigenvalues not converged
     ethr =  5.33E-07,  avg # of iterations =  2.1

     total cpu time spent up to now is      295.2 secs

     total energy              =   -1130.04590429 Ry
     Harris-Foulkes estimate   =   -1130.04630193 Ry
     estimated scf accuracy    <       0.00075294 Ry

     iteration # 12     ecut=    66.00 Ry     beta= 0.10
     Davidson diagonalization with overlap
     ethr =  5.33E-07,  avg # of iterations =  2.0

     total cpu time spent up to now is      311.9 secs

     total energy              =   -1130.04572023 Ry
     Harris-Foulkes estimate   =   -1130.04594809 Ry
     estimated scf accuracy    <       0.00024094 Ry

     iteration # 13     ecut=    66.00 Ry     beta= 0.10
     Davidson diagonalization with overlap
     c_bands:  1 eigenvalues not converged
     ethr =  2.51E-07,  avg # of iterations =  3.2

     total cpu time spent up to now is      332.7 secs

     total energy              =   -1130.04571757 Ry
     Harris-Foulkes estimate   =   -1130.04574513 Ry
     estimated scf accuracy    <       0.00013641 Ry

     iteration # 14     ecut=    66.00 Ry     beta= 0.10
     Davidson diagonalization with overlap
     ethr =  1.42E-07,  avg # of iterations =  1.6

     total cpu time spent up to now is      348.4 secs

     total energy              =   -1130.04574211 Ry
     Harris-Foulkes estimate   =   -1130.04572272 Ry
     estimated scf accuracy    <       0.00010724 Ry

     iteration # 15     ecut=    66.00 Ry     beta= 0.10
     Davidson diagonalization with overlap
     ethr =  1.12E-07,  avg # of iterations =  1.6

     total cpu time spent up to now is      364.1 secs

     total energy              =   -1130.04566852 Ry
     Harris-Foulkes estimate   =   -1130.04574651 Ry
     estimated scf accuracy    <       0.00003122 Ry

     iteration # 16     ecut=    66.00 Ry     beta= 0.10
     Davidson diagonalization with overlap
     ethr =  3.25E-08,  avg # of iterations =  5.2

     total cpu time spent up to now is      400.4 secs

     total energy              =   -1130.04569010 Ry
     Harris-Foulkes estimate   =   -1130.04568584 Ry
     estimated scf accuracy    <       0.00006805 Ry

     iteration # 17     ecut=    66.00 Ry     beta= 0.10
     Davidson diagonalization with overlap
     ethr =  3.25E-08,  avg # of iterations =  1.5

     total cpu time spent up to now is      415.8 secs

     total energy              =   -1130.04567588 Ry
     Harris-Foulkes estimate   =   -1130.04569233 Ry
     estimated scf accuracy    <       0.00002078 Ry

     iteration # 18     ecut=    66.00 Ry     beta= 0.10
     Davidson diagonalization with overlap
     ethr =  2.17E-08,  avg # of iterations =  1.0

     total cpu time spent up to now is      430.2 secs

     total energy              =   -1130.04567014 Ry
     Harris-Foulkes estimate   =   -1130.04567663 Ry
     estimated scf accuracy    <       0.00002072 Ry

     iteration # 19     ecut=    66.00 Ry     beta= 0.10
     Davidson diagonalization with overlap
     ethr =  2.16E-08,  avg # of iterations =  1.5

     total cpu time spent up to now is      445.5 secs

     total energy              =   -1130.04567096 Ry
     Harris-Foulkes estimate   =   -1130.04567123 Ry
     estimated scf accuracy    <       0.00000246 Ry

     iteration # 20     ecut=    66.00 Ry     beta= 0.10
     Davidson diagonalization with overlap
     ethr =  2.56E-09,  avg # of iterations =  4.8

     total cpu time spent up to now is      476.3 secs

     total energy              =   -1130.04567206 Ry
     Harris-Foulkes estimate   =   -1130.04567182 Ry
     estimated scf accuracy    <       0.00000369 Ry

     iteration # 21     ecut=    66.00 Ry     beta= 0.10
     Davidson diagonalization with overlap
     ethr =  2.56E-09,  avg # of iterations =  2.4

     total cpu time spent up to now is      493.9 secs

     total energy              =   -1130.04567420 Ry
     Harris-Foulkes estimate   =   -1130.04567236 Ry
     estimated scf accuracy    <       0.00000909 Ry

     iteration # 22     ecut=    66.00 Ry     beta= 0.10
     Davidson diagonalization with overlap
     ethr =  2.56E-09,  avg # of iterations =  4.1

     total cpu time spent up to now is      521.8 secs

     total energy              =   -1130.04567731 Ry
     Harris-Foulkes estimate   =   -1130.04567567 Ry
     estimated scf accuracy    <       0.00005182 Ry

     iteration # 23     ecut=    66.00 Ry     beta= 0.10
     Davidson diagonalization with overlap
     ethr =  2.56E-09,  avg # of iterations =  1.0

     total cpu time spent up to now is      536.1 secs

     total energy              =   -1130.04567675 Ry
     Harris-Foulkes estimate   =   -1130.04567738 Ry
     estimated scf accuracy    <       0.00005826 Ry

     iteration # 24     ecut=    66.00 Ry     beta= 0.10
     Davidson diagonalization with overlap
     ethr =  2.56E-09,  avg # of iterations =  2.0

     total cpu time spent up to now is      554.9 secs

     total energy              =   -1130.04567315 Ry
     Harris-Foulkes estimate   =   -1130.04567709 Ry
     estimated scf accuracy    <       0.00005695 Ry

     iteration # 25     ecut=    66.00 Ry     beta= 0.10
     Davidson diagonalization with overlap
     ethr =  2.56E-09,  avg # of iterations =  3.0

     total cpu time spent up to now is      575.2 secs

     total energy              =   -1130.04567289 Ry
     Harris-Foulkes estimate   =   -1130.04567367 Ry
     estimated scf accuracy    <       0.00003281 Ry

     iteration # 26     ecut=    66.00 Ry     beta= 0.10
     Davidson diagonalization with overlap
     ethr =  2.56E-09,  avg # of iterations =  3.6

     total cpu time spent up to now is      597.8 secs

     total energy              =   -1130.04567272 Ry
     Harris-Foulkes estimate   =   -1130.04567326 Ry
     estimated scf accuracy    <       0.00001624 Ry

     iteration # 27     ecut=    66.00 Ry     beta= 0.10
     Davidson diagonalization with overlap
     ethr =  2.56E-09,  avg # of iterations =  1.9

     total cpu time spent up to now is      614.1 secs

     total energy              =   -1130.04567082 Ry
     Harris-Foulkes estimate   =   -1130.04567284 Ry
     estimated scf accuracy    <       0.00001898 Ry

     iteration # 28     ecut=    66.00 Ry     beta= 0.10
     Davidson diagonalization with overlap
     ethr =  2.56E-09,  avg # of iterations =  3.7

     total cpu time spent up to now is      637.7 secs

     total energy              =   -1130.04567125 Ry
     Harris-Foulkes estimate   =   -1130.04567157 Ry
     estimated scf accuracy    <       0.00000162 Ry

     iteration # 29     ecut=    66.00 Ry     beta= 0.10
     Davidson diagonalization with overlap
     ethr =  1.69E-09,  avg # of iterations =  2.7

     total cpu time spent up to now is      656.1 secs

     End of self-consistent calculation

     Number of k-points >= 100: set verbosity='high' to print the bands.

     the Fermi energy is    52.7240 ev

!    total energy              =   -1130.04567149 Ry
     Harris-Foulkes estimate   =   -1130.04567144 Ry
     estimated scf accuracy    <       0.00000004 Ry

     total all-electron energy =    -15406.614693 Ry

     The total energy is the sum of the following terms:

     one-electron contribution =     469.09034038 Ry
     hartree contribution      =       1.74849268 Ry
     xc contribution           =    -138.27963261 Ry
     ewald contribution        =    -326.84024986 Ry
     one-center paw contrib.   =   -1135.76461739 Ry
     smearing contrib. (-TS)   =      -0.00000468 Ry

     convergence has been achieved in  29 iterations

     Forces acting on atoms (cartesian axes, Ry/au):

     atom    1 type  1   force =    -0.00339845   -0.00419139    0.00148389
     atom    2 type  1   force =    -0.00421744   -0.00126721    0.01242195
     atom    3 type  1   force =     0.01313611    0.00171471   -0.02054914
     atom    4 type  1   force =    -0.00617381    0.00262414   -0.02377077
     atom    5 type  1   force =    -0.01560077   -0.01301298    0.01621320
     atom    6 type  1   force =    -0.01056051    0.01148305   -0.00621806
     atom    7 type  1   force =    -0.01456087   -0.03193343    0.01270121
     atom    8 type  1   force =    -0.00530328    0.00878154   -0.00460201
     atom    9 type  1   force =     0.01919135    0.00494733   -0.00062764
     atom   10 type  1   force =    -0.00601288    0.00910485   -0.02768569
     atom   11 type  1   force =    -0.00938019   -0.01875014   -0.01279540
     atom   12 type  1   force =    -0.01503196   -0.00520232   -0.00942038
     atom   13 type  1   force =    -0.00457183   -0.01796773    0.00576587
     atom   14 type  1   force =    -0.00952950    0.02005276    0.01916506
     atom   15 type  1   force =    -0.01805229    0.01547017    0.01799414
     atom   16 type  1   force =     0.02532060    0.01261676    0.01389048
     atom   17 type  1   force =    -0.01799167   -0.00463911   -0.00056731
     atom   18 type  1   force =     0.00977812   -0.00324270    0.01474581
     atom   19 type  1   force =     0.02034597    0.01321475   -0.00428482
     atom   20 type  1   force =     0.00589329    0.02020949   -0.00895012
     atom   21 type  1   force =     0.00533430   -0.02261686    0.00942381
     atom   22 type  1   force =    -0.00253474    0.02422134    0.01235627
     atom   23 type  1   force =     0.01265889   -0.00883487   -0.01211895
     atom   24 type  1   force =     0.01392282    0.00449189    0.00332896
     atom   25 type  1   force =    -0.01119294   -0.00096465    0.00631451
     atom   26 type  1   force =     0.01121960   -0.00907458    0.00312085
     atom   27 type  1   force =    -0.00913237   -0.00728380    0.00351492
     atom   28 type  1   force =     0.00447847    0.00141586    0.00578496
     atom   29 type  1   force =     0.03869939   -0.01907595    0.00179515
     atom   30 type  1   force =    -0.00513298    0.00694310   -0.00058671
     atom   31 type  1   force =    -0.01075680   -0.00529202   -0.01724777
     atom   32 type  1   force =    -0.00084364    0.01605799   -0.01059628

     Total force =     0.127896     Total SCF correction =     0.000177


     Computing stress (Cartesian axis) and pressure

          total   stress  (Ry/bohr**3)                   (kbar)     P=59536.14
   0.40472017   0.00000036  -0.00000027      59536.38      0.05     -0.04
   0.00000036   0.40471462  -0.00000033          0.05  59535.57     -0.05
  -0.00000027  -0.00000033   0.40472071         -0.04     -0.05  59536.46


     Writing output data file fe_scf_fcc_2.save/
 
     init_run     :     12.08s CPU     12.84s WALL (       1 calls)
     electrons    :    616.87s CPU    642.85s WALL (       1 calls)
     forces       :      2.32s CPU      2.63s WALL (       1 calls)
     stress       :      4.61s CPU      4.70s WALL (       1 calls)

     Called by init_run:
     wfcinit      :     11.96s CPU     12.67s WALL (       1 calls)
     potinit      :      0.07s CPU      0.07s WALL (       1 calls)
     hinit0       :      0.05s CPU      0.08s WALL (       1 calls)

     Called by electrons:
     c_bands      :    558.84s CPU    580.11s WALL (      29 calls)
     sum_band     :     56.27s CPU     60.86s WALL (      29 calls)
     v_of_rho     :      0.07s CPU      0.12s WALL (      30 calls)
     newd         :      0.07s CPU      0.07s WALL (      30 calls)
     PAW_pot      :      1.63s CPU      1.64s WALL (      30 calls)
     mix_rho      :      0.04s CPU      0.05s WALL (      29 calls)

     Called by c_bands:
     init_us_2    :      4.21s CPU      4.36s WALL (   22265 calls)
     cegterg      :    538.83s CPU    559.48s WALL (   10586 calls)

     Called by sum_band:
     sum_band:bec :      0.79s CPU      0.81s WALL (   10585 calls)
     addusdens    :      0.02s CPU      0.03s WALL (      29 calls)

     Called by *egterg:
     h_psi        :    257.81s CPU    274.21s WALL (   43712 calls)
     s_psi        :     16.29s CPU     16.52s WALL (   43712 calls)
     g_psi        :      0.84s CPU      0.85s WALL (   32761 calls)
     cdiaghg      :    224.68s CPU    225.66s WALL (   43347 calls)

     Called by h_psi:
     h_psi:pot    :    256.97s CPU    273.36s WALL (   43712 calls)
     h_psi:calbec :     25.66s CPU     31.39s WALL (   43712 calls)
     vloc_psi     :    213.82s CPU    224.00s WALL (   43712 calls)
     add_vuspsi   :     17.29s CPU     17.79s WALL (   43712 calls)

     General routines
     calbec       :     36.59s CPU     45.12s WALL (   56122 calls)
     fft          :      0.12s CPU      0.20s WALL (     356 calls)
     ffts         :      0.01s CPU      0.03s WALL (      29 calls)
     fftw         :    243.12s CPU    254.69s WALL ( 3648214 calls)
 
     Parallel routines
     fft_scatt_xy :     17.21s CPU     18.10s WALL ( 3648599 calls)
     fft_scatt_yz :    163.75s CPU    171.74s WALL ( 3648599 calls)
 
     PWSCF        : 10m40.48s CPU    11m18.21s WALL

 
   This run was terminated on:   1:58:59  24Oct2019            

=------------------------------------------------------------------------------=
   JOB DONE.
=------------------------------------------------------------------------------=
