
     Program PWSCF v.6.3 starts on 22Oct2019 at 23:57:25 

     This program is part of the open-source Quantum ESPRESSO suite
     for quantum simulation of materials; please cite
         "P. Giannozzi et al., J. Phys.:Condens. Matter 21 395502 (2009);
         "P. Giannozzi et al., J. Phys.:Condens. Matter 29 465901 (2017);
          URL http://www.quantum-espresso.org", 
     in publications or presentations arising from this work. More details at
     http://www.quantum-espresso.org/quote

     Parallel version (MPI & OpenMP), running on      20 processor cores
     Number of MPI processes:                20
     Threads/MPI process:                     1

     MPI processes distributed on     1 nodes
     R & G space division:  proc/nbgrp/npool/nimage =      20
     Reading input from /rds/homes/b/bxp912/jobs/20191022_test2/wd/runpwscf/file_10245.in
Warning: card &IONS ignored
Warning: card ION_DYNAMICS = 'BFGS', ignored
Warning: card / ignored
Warning: card &CELL ignored
Warning: card CELL_DYNAMICS = 'BFGS', ignored
Warning: card CELL_FACTOR = 2.0, ignored
Warning: card PRESS = 0.0, ignored
Warning: card / ignored

     Current dimensions of program PWSCF are:
     Max number of different atomic species (ntypx) = 10
     Max number of k-points (npk) =  40000
     Max angular momentum in pseudopotentials (lmaxx) =  3
     Message from routine read_upf::
     Pseudo file /rds/homes/b/bxp912/pp/Al.pbe-nl-kjpaw_psl.1.0.0.UPF has been successfully fixed on the fly.
To avoid this message in the future you can permanently fix 
 your pseudo files following instructions given in: 
https://gitlab.com/QEF/q-e/blob/master/upftools/how_to_fix_upf.md
               file Al.pbe-nl-kjpaw_psl.1.0.0.UPF: wavefunction(s)  3S 3P renormalized

     Subspace diagonalization in iterative solution of the eigenvalue problem:
     a serial algorithm will be used

 
     Parallelization info
     --------------------
     sticks:   dense  smooth     PW     G-vecs:    dense   smooth      PW
     Min          52      52     20                 1262     1262     300
     Max          53      53     21                 1265     1265     303
     Sum        1041    1041    401                25269    25269    6031
 


     bravais-lattice index     =            0
     lattice parameter (alat)  =       8.0800  a.u.
     unit-cell volume          =     527.5141 (a.u.)^3
     number of atoms/cell      =           32
     number of atomic types    =            1
     number of electrons       =        96.00
     number of Kohn-Sham states=           58
     kinetic-energy cutoff     =      66.0000  Ry
     charge density cutoff     =     200.0000  Ry
     convergence threshold     =      1.0E-06
     mixing beta               =       0.1000
     number of iterations used =           10  TF        mixing
     Exchange-correlation      = SLA PW PBX PBC ( 1  4  3  4 0 0)

     celldm(1)=   8.080000  celldm(2)=   0.000000  celldm(3)=   0.000000
     celldm(4)=   0.000000  celldm(5)=   0.000000  celldm(6)=   0.000000

     crystal axes: (cart. coord. in units of alat)
               a(1) = (   1.000000   0.000000   0.000000 )  
               a(2) = (   0.000000   1.000000   0.000000 )  
               a(3) = (   0.000000   0.000000   1.000000 )  

     reciprocal axes: (cart. coord. in units 2 pi/alat)
               b(1) = (  1.000000  0.000000  0.000000 )  
               b(2) = (  0.000000  1.000000  0.000000 )  
               b(3) = (  0.000000  0.000000  1.000000 )  


     PseudoPot. # 1 for Al read from file:
     /rds/homes/b/bxp912/pp/Al.pbe-nl-kjpaw_psl.1.0.0.UPF
     MD5 check sum: 339dbea23cf3ab9a065ad45c0f9085d7
     Pseudo is Projector augmented-wave + core cor, Zval =  3.0
     Generated using "atomic" code by A. Dal Corso v.5.1
     Shape of augmentation charge: PSQ
     Using radial grid of 1135 points,  4 beta functions with: 
                l(1) =   0
                l(2) =   0
                l(3) =   1
                l(4) =   1
     Q(r) pseudized with 0 coefficients 


     atomic species   valence    mass     pseudopotential
        Al             3.00    26.98200     Al( 1.00)

     No symmetry found



   Cartesian axes

     site n.     atom                  positions (alat units)
         1           Al  tau(   1) = (  -0.0000618   0.0000180   0.0001286  )
         2           Al  tau(   2) = (   0.2501504   0.2496409   0.0001329  )
         3           Al  tau(   3) = (   0.2498245   0.0000576   0.2505585  )
         4           Al  tau(   4) = (  -0.0000378   0.2504134   0.2503472  )
         5           Al  tau(   5) = (   0.0004835   0.0004765   0.4997751  )
         6           Al  tau(   6) = (   0.2502257   0.2496836   0.5000068  )
         7           Al  tau(   7) = (   0.2500525   0.0002908   0.7497884  )
         8           Al  tau(   8) = (   0.0001038   0.2502148   0.7503971  )
         9           Al  tau(   9) = (   0.0004488   0.5002037  -0.0000292  )
        10           Al  tau(  10) = (   0.2502638   0.7503330   0.0007661  )
        11           Al  tau(  11) = (   0.2503574   0.5002057   0.2504745  )
        12           Al  tau(  12) = (   0.0000725   0.7500861   0.2500479  )
        13           Al  tau(  13) = (   0.0002082   0.5002952   0.5001871  )
        14           Al  tau(  14) = (   0.2499320   0.7501195   0.4997555  )
        15           Al  tau(  15) = (   0.2506361   0.4996019   0.7494255  )
        16           Al  tau(  16) = (  -0.0006199   0.7494434   0.7499870  )
        17           Al  tau(  17) = (   0.5003850  -0.0001898  -0.0000732  )
        18           Al  tau(  18) = (   0.7498343   0.2501778  -0.0004407  )
        19           Al  tau(  19) = (   0.7493109  -0.0001812   0.2501458  )
        20           Al  tau(  20) = (   0.4999530   0.2499270   0.2496819  )
        21           Al  tau(  21) = (   0.4998509   0.0005536   0.4999482  )
        22           Al  tau(  22) = (   0.7501292   0.2494251   0.4999098  )
        23           Al  tau(  23) = (   0.7500676  -0.0001298   0.7500485  )
        24           Al  tau(  24) = (   0.5000215   0.2497853   0.7499902  )
        25           Al  tau(  25) = (   0.4997214   0.5002185  -0.0004144  )
        26           Al  tau(  26) = (   0.7495697   0.7501849   0.0005172  )
        27           Al  tau(  27) = (   0.7501903   0.4996254   0.2498983  )
        28           Al  tau(  28) = (   0.5001659   0.7496046   0.2503955  )
        29           Al  tau(  29) = (   0.4993878   0.5001941   0.5000764  )
        30           Al  tau(  30) = (   0.7503133   0.7499759   0.4997253  )
        31           Al  tau(  31) = (   0.7499001   0.5000179   0.7502634  )
        32           Al  tau(  32) = (   0.5000268   0.7499029   0.7498445  )

     number of k points=    63  Marzari-Vanderbilt smearing, width (Ry)=  0.0300
                       cart. coord. in units 2pi/alat
        k(    1) = (   0.1000000   0.1000000   0.1000000), wk =   0.0320000
        k(    2) = (   0.1000000   0.1000000   0.3000000), wk =   0.0320000
        k(    3) = (   0.1000000   0.1000000  -0.5000000), wk =   0.0320000
        k(    4) = (   0.1000000   0.3000000   0.3000000), wk =   0.0320000
        k(    5) = (   0.1000000   0.3000000  -0.5000000), wk =   0.0320000
        k(    6) = (   0.1000000  -0.5000000  -0.5000000), wk =   0.0320000
        k(    7) = (   0.3000000   0.3000000   0.3000000), wk =   0.0320000
        k(    8) = (   0.3000000   0.3000000  -0.5000000), wk =   0.0320000
        k(    9) = (   0.3000000  -0.5000000  -0.5000000), wk =   0.0320000
        k(   10) = (  -0.5000000  -0.5000000  -0.5000000), wk =   0.0160000
        k(   11) = (  -0.1000000  -0.1000000   0.1000000), wk =   0.0320000
        k(   12) = (  -0.1000000   0.1000000  -0.1000000), wk =   0.0320000
        k(   13) = (   0.1000000  -0.1000000  -0.1000000), wk =   0.0320000
        k(   14) = (  -0.1000000  -0.1000000   0.3000000), wk =   0.0320000
        k(   15) = (  -0.1000000   0.1000000  -0.3000000), wk =   0.0320000
        k(   16) = (   0.1000000  -0.1000000  -0.3000000), wk =   0.0320000
        k(   17) = (   0.3000000  -0.1000000   0.1000000), wk =   0.0320000
        k(   18) = (  -0.3000000  -0.1000000  -0.1000000), wk =   0.0320000
        k(   19) = (   0.3000000   0.1000000  -0.1000000), wk =   0.0320000
        k(   20) = (  -0.3000000   0.1000000   0.1000000), wk =   0.0320000
        k(   21) = (  -0.1000000   0.3000000   0.1000000), wk =   0.0320000
        k(   22) = (  -0.1000000  -0.3000000  -0.1000000), wk =   0.0320000
        k(   23) = (   0.1000000   0.3000000  -0.1000000), wk =   0.0320000
        k(   24) = (   0.1000000  -0.3000000   0.1000000), wk =   0.0320000
        k(   25) = (  -0.1000000   0.1000000   0.5000000), wk =   0.0320000
        k(   26) = (  -0.5000000  -0.1000000   0.1000000), wk =   0.0320000
        k(   27) = (   0.5000000  -0.1000000  -0.1000000), wk =   0.0320000
        k(   28) = (  -0.1000000  -0.5000000   0.1000000), wk =   0.0320000
        k(   29) = (  -0.1000000   0.5000000  -0.1000000), wk =   0.0320000
        k(   30) = (  -0.1000000  -0.3000000   0.3000000), wk =   0.0320000
        k(   31) = (  -0.1000000   0.3000000  -0.3000000), wk =   0.0320000
        k(   32) = (   0.1000000  -0.3000000  -0.3000000), wk =   0.0320000
        k(   33) = (   0.3000000   0.1000000  -0.3000000), wk =   0.0320000
        k(   34) = (  -0.3000000  -0.1000000  -0.3000000), wk =   0.0320000
        k(   35) = (   0.3000000  -0.1000000   0.3000000), wk =   0.0320000
        k(   36) = (  -0.3000000   0.1000000   0.3000000), wk =   0.0320000
        k(   37) = (   0.3000000  -0.3000000   0.1000000), wk =   0.0320000
        k(   38) = (  -0.3000000  -0.3000000  -0.1000000), wk =   0.0320000
        k(   39) = (   0.3000000   0.3000000  -0.1000000), wk =   0.0320000
        k(   40) = (  -0.3000000   0.3000000   0.1000000), wk =   0.0320000
        k(   41) = (  -0.1000000   0.3000000   0.5000000), wk =   0.0320000
        k(   42) = (   0.3000000   0.1000000   0.5000000), wk =   0.0320000
        k(   43) = (   0.3000000  -0.1000000  -0.5000000), wk =   0.0320000
        k(   44) = (  -0.5000000  -0.3000000   0.1000000), wk =   0.0320000
        k(   45) = (   0.5000000  -0.3000000  -0.1000000), wk =   0.0320000
        k(   46) = (  -0.1000000  -0.5000000   0.3000000), wk =   0.0320000
        k(   47) = (  -0.1000000   0.5000000  -0.3000000), wk =   0.0320000
        k(   48) = (   0.3000000  -0.5000000   0.1000000), wk =   0.0320000
        k(   49) = (   0.3000000   0.5000000  -0.1000000), wk =   0.0320000
        k(   50) = (  -0.5000000   0.1000000   0.3000000), wk =   0.0320000
        k(   51) = (   0.5000000  -0.1000000   0.3000000), wk =   0.0320000
        k(   52) = (  -0.5000000   0.1000000   0.5000000), wk =   0.0320000
        k(   53) = (  -0.5000000   0.5000000   0.1000000), wk =   0.0320000
        k(   54) = (  -0.3000000  -0.3000000   0.3000000), wk =   0.0320000
        k(   55) = (  -0.3000000   0.3000000  -0.3000000), wk =   0.0320000
        k(   56) = (   0.3000000  -0.3000000  -0.3000000), wk =   0.0320000
        k(   57) = (  -0.3000000   0.3000000   0.5000000), wk =   0.0320000
        k(   58) = (  -0.5000000  -0.3000000   0.3000000), wk =   0.0320000
        k(   59) = (   0.5000000  -0.3000000  -0.3000000), wk =   0.0320000
        k(   60) = (  -0.3000000  -0.5000000   0.3000000), wk =   0.0320000
        k(   61) = (  -0.3000000   0.5000000  -0.3000000), wk =   0.0320000
        k(   62) = (  -0.5000000   0.3000000   0.5000000), wk =   0.0320000
        k(   63) = (  -0.5000000   0.5000000   0.3000000), wk =   0.0320000

     Dense  grid:    25269 G-vectors     FFT dimensions: (  40,  40,  40)

     Estimated max dynamical RAM per process >      20.87 MB

     Estimated total dynamical RAM >     417.35 MB

     Initial potential from superposition of free atoms

     starting charge   95.92671, renormalised to   96.00000
     Starting wfcs are  128 randomized atomic wfcs
     Checking if some PAW data can be deallocated... 

     total cpu time spent up to now is        3.4 secs

     Self-consistent Calculation

     iteration #  1     ecut=    66.00 Ry     beta= 0.10
     Davidson diagonalization with overlap
     ethr =  1.00E-02,  avg # of iterations =  5.0

     total cpu time spent up to now is       11.2 secs

     total energy              =   -1133.15182269 Ry
     Harris-Foulkes estimate   =   -1134.40181761 Ry
     estimated scf accuracy    <       1.41345142 Ry

     iteration #  2     ecut=    66.00 Ry     beta= 0.10
     Davidson diagonalization with overlap
     ethr =  1.47E-03,  avg # of iterations =  4.0

     total cpu time spent up to now is       15.8 secs

     total energy              =   -1129.71700307 Ry
     Harris-Foulkes estimate   =   -1133.29113073 Ry
     estimated scf accuracy    <       1.22915674 Ry

     iteration #  3     ecut=    66.00 Ry     beta= 0.10
     Davidson diagonalization with overlap
     ethr =  1.28E-03,  avg # of iterations =  4.0

     total cpu time spent up to now is       22.3 secs

     total energy              =   -1130.33109756 Ry
     Harris-Foulkes estimate   =   -1130.84084673 Ry
     estimated scf accuracy    <       0.23434325 Ry

     iteration #  4     ecut=    66.00 Ry     beta= 0.10
     Davidson diagonalization with overlap
     ethr =  2.44E-04,  avg # of iterations =  2.1

     total cpu time spent up to now is       26.0 secs

     total energy              =   -1130.00641544 Ry
     Harris-Foulkes estimate   =   -1130.34355548 Ry
     estimated scf accuracy    <       0.14779422 Ry

     iteration #  5     ecut=    66.00 Ry     beta= 0.10
     Davidson diagonalization with overlap
     ethr =  1.54E-04,  avg # of iterations =  3.8

     total cpu time spent up to now is       32.2 secs

     total energy              =   -1130.06020941 Ry
     Harris-Foulkes estimate   =   -1130.06899010 Ry
     estimated scf accuracy    <       0.01611539 Ry

     iteration #  6     ecut=    66.00 Ry     beta= 0.10
     Davidson diagonalization with overlap
     c_bands:  2 eigenvalues not converged
     ethr =  1.68E-05,  avg # of iterations =  4.1

     total cpu time spent up to now is       36.8 secs

     total energy              =   -1130.03536371 Ry
     Harris-Foulkes estimate   =   -1130.06127340 Ry
     estimated scf accuracy    <       0.01283587 Ry

     iteration #  7     ecut=    66.00 Ry     beta= 0.10
     Davidson diagonalization with overlap
     ethr =  1.34E-05,  avg # of iterations =  1.6

     total cpu time spent up to now is       40.0 secs

     total energy              =   -1130.02745931 Ry
     Harris-Foulkes estimate   =   -1130.03629673 Ry
     estimated scf accuracy    <       0.00338503 Ry

     iteration #  8     ecut=    66.00 Ry     beta= 0.10
     Davidson diagonalization with overlap
     c_bands:  1 eigenvalues not converged
     c_bands:  1 eigenvalues not converged
     c_bands:  4 eigenvalues not converged
     ethr =  3.53E-06,  avg # of iterations =  8.2

     total cpu time spent up to now is       49.3 secs

     total energy              =   -1130.04429566 Ry
     Harris-Foulkes estimate   =   -1130.04441490 Ry
     estimated scf accuracy    <       0.00060036 Ry

     iteration #  9     ecut=    66.00 Ry     beta= 0.10
     Davidson diagonalization with overlap
     c_bands:  1 eigenvalues not converged
     c_bands:  2 eigenvalues not converged
     ethr =  6.25E-07,  avg # of iterations =  2.9

     total cpu time spent up to now is       53.4 secs

     total energy              =   -1130.04486042 Ry
     Harris-Foulkes estimate   =   -1130.04473602 Ry
     estimated scf accuracy    <       0.00054191 Ry

     iteration # 10     ecut=    66.00 Ry     beta= 0.10
     Davidson diagonalization with overlap
     ethr =  5.64E-07,  avg # of iterations =  1.2

     total cpu time spent up to now is       56.4 secs

     total energy              =   -1130.04458518 Ry
     Harris-Foulkes estimate   =   -1130.04486438 Ry
     estimated scf accuracy    <       0.00055250 Ry

     iteration # 11     ecut=    66.00 Ry     beta= 0.10
     Davidson diagonalization with overlap
     ethr =  5.64E-07,  avg # of iterations =  1.0

     total cpu time spent up to now is       59.4 secs

     total energy              =   -1130.04598546 Ry
     Harris-Foulkes estimate   =   -1130.04458760 Ry
     estimated scf accuracy    <       0.00050746 Ry

     iteration # 12     ecut=    66.00 Ry     beta= 0.10
     Davidson diagonalization with overlap
     ethr =  5.29E-07,  avg # of iterations =  5.3

     total cpu time spent up to now is       65.2 secs

     total energy              =   -1130.04334817 Ry
     Harris-Foulkes estimate   =   -1130.04621800 Ry
     estimated scf accuracy    <       0.00066851 Ry

     iteration # 13     ecut=    66.00 Ry     beta= 0.10
     Davidson diagonalization with overlap
     c_bands:  1 eigenvalues not converged
     ethr =  5.29E-07,  avg # of iterations =  2.2

     total cpu time spent up to now is       68.7 secs

     total energy              =   -1130.04165742 Ry
     Harris-Foulkes estimate   =   -1130.04338519 Ry
     estimated scf accuracy    <       0.00078239 Ry

     iteration # 14     ecut=    66.00 Ry     beta= 0.10
     Davidson diagonalization with overlap
     ethr =  5.29E-07,  avg # of iterations =  2.9

     total cpu time spent up to now is       72.8 secs

     total energy              =   -1130.03964833 Ry
     Harris-Foulkes estimate   =   -1130.04172763 Ry
     estimated scf accuracy    <       0.00037855 Ry

     iteration # 15     ecut=    66.00 Ry     beta= 0.10
     Davidson diagonalization with overlap
     ethr =  3.94E-07,  avg # of iterations =  4.0

     total cpu time spent up to now is       78.8 secs

     total energy              =   -1130.03978836 Ry
     Harris-Foulkes estimate   =   -1130.03976964 Ry
     estimated scf accuracy    <       0.00012050 Ry

     iteration # 16     ecut=    66.00 Ry     beta= 0.10
     Davidson diagonalization with overlap
     ethr =  1.26E-07,  avg # of iterations =  1.0

     total cpu time spent up to now is       81.7 secs

     total energy              =   -1130.03948598 Ry
     Harris-Foulkes estimate   =   -1130.03979011 Ry
     estimated scf accuracy    <       0.00012763 Ry

     iteration # 17     ecut=    66.00 Ry     beta= 0.10
     Davidson diagonalization with overlap
     ethr =  1.26E-07,  avg # of iterations =  5.7

     total cpu time spent up to now is       89.5 secs

     total energy              =   -1130.03953372 Ry
     Harris-Foulkes estimate   =   -1130.03955590 Ry
     estimated scf accuracy    <       0.00018915 Ry

     iteration # 18     ecut=    66.00 Ry     beta= 0.10
     Davidson diagonalization with overlap
     ethr =  1.26E-07,  avg # of iterations =  2.8

     total cpu time spent up to now is       93.5 secs

     total energy              =   -1130.03954603 Ry
     Harris-Foulkes estimate   =   -1130.03954903 Ry
     estimated scf accuracy    <       0.00000655 Ry

     iteration # 19     ecut=    66.00 Ry     beta= 0.10
     Davidson diagonalization with overlap
     ethr =  6.83E-09,  avg # of iterations =  5.0

     total cpu time spent up to now is      100.0 secs

     total energy              =   -1130.03954402 Ry
     Harris-Foulkes estimate   =   -1130.03954881 Ry
     estimated scf accuracy    <       0.00000429 Ry

     iteration # 20     ecut=    66.00 Ry     beta= 0.10
     Davidson diagonalization with overlap
     ethr =  4.47E-09,  avg # of iterations =  3.5

     total cpu time spent up to now is      104.5 secs

     total energy              =   -1130.03954254 Ry
     Harris-Foulkes estimate   =   -1130.03954502 Ry
     estimated scf accuracy    <       0.00001257 Ry

     iteration # 21     ecut=    66.00 Ry     beta= 0.10
     Davidson diagonalization with overlap
     ethr =  4.47E-09,  avg # of iterations =  1.0

     total cpu time spent up to now is      107.5 secs

     total energy              =   -1130.03954237 Ry
     Harris-Foulkes estimate   =   -1130.03954284 Ry
     estimated scf accuracy    <       0.00000393 Ry

     iteration # 22     ecut=    66.00 Ry     beta= 0.10
     Davidson diagonalization with overlap
     ethr =  4.09E-09,  avg # of iterations =  1.2

     total cpu time spent up to now is      110.5 secs

     total energy              =   -1130.03954255 Ry
     Harris-Foulkes estimate   =   -1130.03954254 Ry
     estimated scf accuracy    <       0.00000162 Ry

     iteration # 23     ecut=    66.00 Ry     beta= 0.10
     Davidson diagonalization with overlap
     ethr =  1.68E-09,  avg # of iterations =  1.5

     total cpu time spent up to now is      114.0 secs

     total energy              =   -1130.03954301 Ry
     Harris-Foulkes estimate   =   -1130.03954259 Ry
     estimated scf accuracy    <       0.00000190 Ry

     iteration # 24     ecut=    66.00 Ry     beta= 0.10
     Davidson diagonalization with overlap
     ethr =  1.68E-09,  avg # of iterations =  1.1

     total cpu time spent up to now is      117.0 secs

     total energy              =   -1130.03954260 Ry
     Harris-Foulkes estimate   =   -1130.03954305 Ry
     estimated scf accuracy    <       0.00000213 Ry

     iteration # 25     ecut=    66.00 Ry     beta= 0.10
     Davidson diagonalization with overlap
     ethr =  1.68E-09,  avg # of iterations =  2.0

     total cpu time spent up to now is      120.6 secs

     total energy              =   -1130.03954279 Ry
     Harris-Foulkes estimate   =   -1130.03954268 Ry
     estimated scf accuracy    <       0.00000233 Ry

     iteration # 26     ecut=    66.00 Ry     beta= 0.10
     Davidson diagonalization with overlap
     ethr =  1.68E-09,  avg # of iterations =  1.0

     total cpu time spent up to now is      123.6 secs

     total energy              =   -1130.03954284 Ry
     Harris-Foulkes estimate   =   -1130.03954282 Ry
     estimated scf accuracy    <       0.00000180 Ry

     iteration # 27     ecut=    66.00 Ry     beta= 0.10
     Davidson diagonalization with overlap
     ethr =  1.68E-09,  avg # of iterations =  1.0

     total cpu time spent up to now is      126.5 secs

     total energy              =   -1130.03954277 Ry
     Harris-Foulkes estimate   =   -1130.03954285 Ry
     estimated scf accuracy    <       0.00000164 Ry

     iteration # 28     ecut=    66.00 Ry     beta= 0.10
     Davidson diagonalization with overlap
     ethr =  1.68E-09,  avg # of iterations =  1.0

     total cpu time spent up to now is      129.5 secs

     total energy              =   -1130.03954272 Ry
     Harris-Foulkes estimate   =   -1130.03954278 Ry
     estimated scf accuracy    <       0.00000169 Ry

     iteration # 29     ecut=    66.00 Ry     beta= 0.10
     Davidson diagonalization with overlap
     ethr =  1.68E-09,  avg # of iterations =  1.0

     total cpu time spent up to now is      132.4 secs

     total energy              =   -1130.03954271 Ry
     Harris-Foulkes estimate   =   -1130.03954273 Ry
     estimated scf accuracy    <       0.00000175 Ry

     iteration # 30     ecut=    66.00 Ry     beta= 0.10
     Davidson diagonalization with overlap
     ethr =  1.68E-09,  avg # of iterations =  3.3

     total cpu time spent up to now is      136.6 secs

     End of self-consistent calculation

          k = 0.1000 0.1000 0.1000 (  4785 PWs)   bands (ev):

    29.6272  35.1231  35.1345  35.1437  37.0401  37.0495  37.0572  39.6218
    39.6324  39.6410  40.8562  40.8586  40.8608  41.2588  41.2652  41.2672
    41.2727  41.2831  41.2839  42.6983  42.7057  42.7118  43.0635  44.2844
    44.2874  44.2932  44.2970  44.3025  44.3086  44.6157  44.6268  44.6374
    46.2158  46.2273  46.2385  47.7203  52.1396  52.1418  52.1443  52.7671
    52.7684  52.7703  52.7712  52.7731  52.7747  53.4228  53.4244  53.4266
    53.4289  53.4305  53.4323  53.7631  53.7644  53.7650  54.4500  54.4517
    54.4528  54.7099

          k = 0.1000 0.1000 0.3000 (  4773 PWs)   bands (ev):

    30.2908  33.2190  35.6634  35.6678  37.5630  37.5668  38.0382  38.0424
    38.7204  39.8150  39.8192  40.0105  40.6105  41.4481  41.4501  41.6546
    41.6618  41.7659  42.7416  42.7445  43.1149  43.3990  43.4089  43.5620
    43.5632  43.8748  43.8765  44.2329  44.2341  44.4876  44.4902  44.9367
    46.4873  47.9430  47.9540  49.4680  51.1123  52.1958  52.1982  52.3173
    52.3212  52.3626  52.3704  52.5256  52.5268  52.5769  52.5778  52.7705
    52.8513  52.8516  53.6349  53.6381  53.7472  53.7498  53.8347  53.9436
    53.9454  54.1354

          k = 0.1000 0.1000-0.5000 (  4804 PWs)   bands (ev):

    31.5328  31.5428  36.6617  36.6683  36.6740  36.6771  38.5219  38.5271
    38.5319  38.5352  39.9299  39.9421  40.7316  40.7388  42.3826  42.3907
    42.3929  42.3977  42.4600  42.4613  42.4635  42.4660  43.7757  43.7780
    43.7871  43.7900  43.8835  43.8875  44.4823  44.4841  44.4915  44.4934
    48.6352  48.6532  49.9890  50.0018  50.0121  50.0191  51.5068  51.5225
    52.2509  52.2576  52.2653  52.2727  52.3193  52.3215  52.3240  52.3260
    52.8324  52.8464  52.8538  52.8648  54.0167  54.0431  54.0741  54.0748
    54.0758  54.0767

          k = 0.1000 0.3000 0.3000 (  4792 PWs)   bands (ev):

    30.9334  33.7778  33.7913  36.1697  36.3254  38.0549  38.4427  38.4547
    39.2412  39.2473  40.2170  40.2278  40.3590  41.1819  41.1918  41.4319
    41.4457  42.0214  42.0738  43.1745  43.1805  43.3354  43.3440  43.9716
    43.9752  44.3063  44.3100  44.5337  44.5438  44.5472  45.0527  45.0682
    46.8518  46.8679  49.6485  50.2228  50.2282  51.1696  51.1735  51.2049
    51.2161  51.2509  52.0554  52.0862  52.0930  52.1202  52.6806  52.6818
    52.7401  52.7514  53.7594  53.7690  53.9891  53.9898  54.2501  54.3071
    54.3282  54.5321

          k = 0.1000 0.3000-0.5000 (  4754 PWs)   bands (ev):

    32.1393  32.1494  34.8518  34.8616  37.1234  37.1325  38.9722  38.9794
    39.2327  39.2416  40.2009  40.2064  40.4795  40.4918  40.9916  40.9987
    42.1920  42.1931  42.6589  42.6708  42.9852  42.9889  43.9850  43.9886
    44.2160  44.2267  44.4780  44.4841  44.7798  44.7870  45.0484  45.0485
    47.9000  47.9170  48.8914  48.9087  50.1992  50.2113  50.7082  50.7208
    51.5918  51.6077  51.7653  51.7774  52.0398  52.0469  52.7125  52.7167
    53.2488  53.2635  53.2729  53.2874  53.8492  53.8740  54.1238  54.1252
    54.3163  54.3238

          k = 0.1000-0.5000-0.5000 (  4740 PWs)   bands (ev):

    33.2813  33.2875  33.2968  33.3014  37.9964  38.0019  38.0100  38.0141
    39.8171  39.8217  39.8289  39.8323  41.4467  41.4551  41.4664  41.4679
    41.4700  41.4736  41.4788  41.4868  43.8124  43.8138  43.8169  43.8189
    44.8937  44.8965  44.9036  44.9048  44.9060  44.9089  44.9107  44.9148
    48.7995  48.8097  48.8132  48.8214  48.8256  48.8311  48.8349  48.8464
    51.7357  51.7399  51.7478  51.7533  53.3692  53.3733  53.3798  53.3866
    53.5649  53.5692  53.5804  53.5842  53.5930  53.5997  53.6076  53.6163
    54.1935  54.1944

          k = 0.3000 0.3000 0.3000 (  4788 PWs)   bands (ev):

    31.5538  34.3123  34.3243  34.3340  36.7585  36.7701  36.7793  38.8460
    39.7420  39.7475  39.7519  41.7415  41.7479  41.7541  41.8690  41.8734
    41.8766  41.8826  41.8893  41.8914  43.7889  43.7940  43.7970  43.8005
    43.8019  43.8078  43.8130  43.8216  43.8284  44.8373  44.8382  44.8393
    48.4392  48.4510  48.4628  49.7950  49.8015  49.8067  51.4773  51.4788
    51.4809  51.4845  51.4901  51.4960  52.3583  52.3636  52.3659  52.3700
    52.3825  52.3876  52.4220  52.4284  52.4372  53.1020  54.7216  54.7273
    54.7336  55.3072

          k = 0.3000 0.3000-0.5000 (  4758 PWs)   bands (ev):

    32.7214  32.7315  35.3413  35.3481  35.3545  35.3574  37.6227  37.6318
    40.6686  40.6719  40.6747  40.6783  41.0135  41.0258  42.6955  42.7028
    42.7054  42.7098  42.7195  42.7207  42.7239  42.7278  43.1403  43.1421
    43.1518  43.1550  44.4878  44.4900  44.4924  44.4971  44.9298  44.9380
    48.2772  48.2892  50.2913  50.3110  50.3125  50.3224  50.3375  50.3426
    50.3512  50.3620  51.5150  51.5298  51.5375  51.5500  51.9458  51.9531
    51.9546  51.9588  53.2588  53.2813  53.5636  53.5732  53.5765  53.5856
    55.2167  55.2280

          k = 0.3000-0.5000-0.5000 (  4772 PWs)   bands (ev):

    33.8216  33.8278  33.8370  33.8417  36.2883  36.2942  36.3031  36.3074
    41.5404  41.5438  41.5490  41.5516  41.9556  41.9640  41.9758  41.9772
    41.9791  41.9830  41.9882  41.9964  43.6130  43.6135  43.6147  43.6154
    43.9809  43.9880  43.9998  44.0007  44.0022  44.0069  44.0106  44.0188
    49.7302  49.7356  49.7435  49.7523  49.7597  49.7613  49.7678  49.7758
    51.0338  51.0376  51.0444  51.0485  51.8984  51.9016  51.9097  51.9149
    52.4054  52.4081  52.4132  52.4205  52.4325  52.4336  52.4424  52.4434
    56.0453  56.0531

          k =-0.5000-0.5000-0.5000 (  4776 PWs)   bands (ev):

    34.8427  34.8536  34.8555  34.8630  34.8672  34.8698  34.8808  34.8838
    42.8559  42.8591  42.8648  42.8709  42.8772  42.8790  42.8808  42.8815
    42.8831  42.8846  42.8867  42.8885  42.8926  42.8969  42.8980  42.9018
    42.9031  42.9071  42.9080  42.9142  42.9177  42.9195  42.9212  42.9272
    50.9913  51.0037  51.0082  51.0136  51.0162  51.0207  51.0257  51.0296
    51.0309  51.0335  51.0346  51.0371  51.0412  51.0428  51.0459  51.0528
    51.0544  51.0619  51.0621  51.0684  51.0725  51.0772  51.0837  51.0853
    58.6605  58.6646

          k =-0.1000-0.1000 0.1000 (  4785 PWs)   bands (ev):

    29.6272  35.1250  35.1345  35.1417  37.0418  37.0496  37.0555  39.6236
    39.6325  39.6391  40.8572  40.8585  40.8600  41.2529  41.2631  41.2684
    41.2698  41.2830  41.2938  42.6994  42.7058  42.7106  43.0635  44.2845
    44.2879  44.2935  44.2971  44.3020  44.3083  44.6200  44.6265  44.6332
    46.2203  46.2271  46.2342  47.7204  52.1404  52.1420  52.1433  52.7671
    52.7686  52.7692  52.7714  52.7740  52.7745  53.4219  53.4252  53.4275
    53.4283  53.4293  53.4322  53.7635  53.7647  53.7655  54.4506  54.4514
    54.4524  54.7033

          k =-0.1000 0.1000-0.1000 (  4785 PWs)   bands (ev):

    29.6272  35.1239  35.1337  35.1435  37.0408  37.0490  37.0570  39.6225
    39.6317  39.6409  40.8561  40.8585  40.8611  41.2507  41.2606  41.2715
    41.2762  41.2841  41.2880  42.6988  42.7052  42.7118  43.0634  44.2846
    44.2884  44.2928  44.2975  44.3021  44.3077  44.6149  44.6266  44.6383
    46.2149  46.2272  46.2395  47.7203  52.1393  52.1418  52.1446  52.7677
    52.7685  52.7698  52.7713  52.7729  52.7743  53.4240  53.4252  53.4270
    53.4281  53.4301  53.4310  53.7636  53.7642  53.7653  54.4500  54.4515
    54.4531  54.7009

          k = 0.1000-0.1000-0.1000 (  4785 PWs)   bands (ev):

    29.6272  35.1227  35.1362  35.1424  37.0397  37.0510  37.0561  39.6215
    39.6341  39.6398  40.8557  40.8585  40.8613  41.2516  41.2640  41.2700
    41.2744  41.2816  41.2893  42.6978  42.7068  42.7110  43.0636  44.2850
    44.2876  44.2922  44.2973  44.3024  44.3086  44.6138  44.6266  44.6396
    46.2136  46.2271  46.2409  47.7203  52.1390  52.1420  52.1447  52.7669
    52.7678  52.7697  52.7723  52.7734  52.7748  53.4233  53.4249  53.4260
    53.4280  53.4296  53.4318  53.7629  53.7649  53.7667  54.4497  54.4514
    54.4534  54.7003

          k =-0.1000-0.1000 0.3000 (  4773 PWs)   bands (ev):

    30.2908  33.2190  35.6633  35.6678  37.5631  37.5668  38.0382  38.0425
    38.7203  39.8154  39.8190  40.0101  40.6106  41.4480  41.4502  41.6538
    41.6625  41.7661  42.7418  42.7445  43.1147  43.3993  43.4090  43.5617
    43.5634  43.8747  43.8763  44.2329  44.2340  44.4875  44.4902  44.9368
    46.4873  47.9430  47.9540  49.4680  51.1122  52.1962  52.1977  52.3145
    52.3213  52.3628  52.3733  52.5256  52.5270  52.5766  52.5775  52.7709
    52.8508  52.8517  53.6351  53.6379  53.7486  53.7501  53.8335  53.9437
    53.9451  54.1348

          k =-0.1000 0.1000-0.3000 (  4773 PWs)   bands (ev):

    30.2908  33.2190  35.6615  35.6696  37.5617  37.5683  38.0363  38.0442
    38.7203  39.8138  39.8205  40.0103  40.6105  41.4470  41.4512  41.6509
    41.6664  41.7651  42.7408  42.7453  43.1149  43.3946  43.4138  43.5610
    43.5641  43.8739  43.8769  44.2323  44.2346  44.4864  44.4914  44.9368
    46.4873  47.9376  47.9595  49.4681  51.1123  52.1948  52.1991  52.3175
    52.3195  52.3558  52.3778  52.5255  52.5280  52.5765  52.5779  52.7698
    52.8512  52.8527  53.6343  53.6390  53.7481  53.7504  53.8327  53.9441
    53.9455  54.1343

          k = 0.1000-0.1000-0.3000 (  4773 PWs)   bands (ev):

    30.2908  33.2190  35.6616  35.6695  37.5614  37.5683  38.0364  38.0443
    38.7205  39.8139  39.8207  40.0099  40.6105  41.4470  41.4512  41.6495
    41.6667  41.7661  42.7411  42.7455  43.1141  43.3948  43.4136  43.5608
    43.5641  43.8744  43.8771  44.2324  44.2347  44.4864  44.4913  44.9367
    46.4874  47.9376  47.9595  49.4679  51.1122  52.1951  52.1990  52.3201
    52.3206  52.3535  52.3765  52.5253  52.5277  52.5766  52.5781  52.7710
    52.8508  52.8515  53.6344  53.6384  53.7476  53.7500  53.8347  53.9435
    53.9451  54.1346

          k = 0.3000-0.1000 0.1000 (  4773 PWs)   bands (ev):

    30.2908  33.2190  35.6611  35.6700  37.5613  37.5688  38.0359  38.0444
    38.7204  39.8137  39.8210  40.0099  40.6107  41.4481  41.4500  41.6556
    41.6623  41.7644  42.7405  42.7457  43.1150  43.3998  43.4082  43.5619
    43.5632  43.8740  43.8772  44.2323  44.2347  44.4861  44.4916  44.9368
    46.4873  47.9436  47.9533  49.4680  51.1122  52.1964  52.1978  52.3164
    52.3184  52.3638  52.3719  52.5264  52.5274  52.5764  52.5783  52.7703
    52.8504  52.8522  53.6343  53.6385  53.7487  53.7498  53.8333  53.9432
    53.9460  54.1341

          k =-0.3000-0.1000-0.1000 (  4773 PWs)   bands (ev):

    30.2908  33.2190  35.6592  35.6720  37.5597  37.5704  38.0338  38.0465
    38.7203  39.8118  39.8227  40.0103  40.6105  41.4472  41.4508  41.6522
    41.6658  41.7644  42.7393  42.7466  43.1153  43.3957  43.4120  43.5615
    43.5639  43.8732  43.8780  44.2316  44.2352  44.4849  44.4929  44.9368
    46.4873  47.9391  47.9580  49.4679  51.1123  52.1945  52.1987  52.3158
    52.3210  52.3588  52.3763  52.5255  52.5275  52.5757  52.5787  52.7711
    52.8507  52.8518  53.6328  53.6406  53.7474  53.7499  53.8345  53.9431
    53.9451  54.1346

          k = 0.3000 0.1000-0.1000 (  4773 PWs)   bands (ev):

    30.2908  33.2190  35.6611  35.6700  37.5614  37.5688  38.0358  38.0444
    38.7205  39.8136  39.8212  40.0098  40.6106  41.4482  41.4500  41.6555
    41.6623  41.7643  42.7405  42.7460  43.1148  43.3995  43.4083  43.5620
    43.5632  43.8742  43.8771  44.2321  44.2348  44.4862  44.4916  44.9369
    46.4872  47.9436  47.9533  49.4680  51.1123  52.1962  52.1980  52.3168
    52.3207  52.3626  52.3705  52.5260  52.5272  52.5766  52.5782  52.7713
    52.8502  52.8514  53.6341  53.6391  53.7480  53.7495  53.8347  53.9435
    53.9450  54.1342

          k =-0.3000 0.1000 0.1000 (  4773 PWs)   bands (ev):

    30.2908  33.2190  35.6592  35.6720  37.5597  37.5704  38.0338  38.0464
    38.7206  39.8116  39.8226  40.0104  40.6106  41.4471  41.4509  41.6517
    41.6659  41.7647  42.7394  42.7468  43.1151  43.3953  43.4120  43.5612
    43.5640  43.8733  43.8782  44.2317  44.2352  44.4850  44.4929  44.9368
    46.4873  47.9391  47.9580  49.4679  51.1121  52.1951  52.1981  52.3176
    52.3230  52.3567  52.3744  52.5254  52.5275  52.5757  52.5786  52.7713
    52.8508  52.8519  53.6329  53.6404  53.7483  53.7504  53.8333  53.9431
    53.9454  54.1337

          k =-0.1000 0.3000 0.1000 (  4773 PWs)   bands (ev):

    30.2908  33.2190  35.6589  35.6723  37.5591  37.5707  38.0338  38.0468
    38.7205  39.8115  39.8227  40.0104  40.6105  41.4489  41.4492  41.6566
    41.6597  41.7659  42.7393  42.7469  43.1145  43.4035  43.4044  43.5625
    43.5627  43.8733  43.8783  44.2316  44.2353  44.4846  44.4931  44.9367
    46.4874  47.9479  47.9492  49.4678  51.1122  52.1968  52.1970  52.3180
    52.3233  52.3641  52.3667  52.5255  52.5260  52.5763  52.5789  52.7712
    52.8501  52.8520  53.6324  53.6401  53.7473  53.7495  53.8353  53.9431
    53.9458  54.1345

          k =-0.1000-0.3000-0.1000 (  4773 PWs)   bands (ev):

    30.2908  33.2190  35.6578  35.6734  37.5583  37.5716  38.0328  38.0478
    38.7204  39.8107  39.8240  40.0099  40.6105  41.4481  41.4501  41.6551
    41.6612  41.7659  42.7386  42.7478  43.1145  43.3994  43.4088  43.5617
    43.5633  43.8729  43.8785  44.2311  44.2357  44.4839  44.4938  44.9366
    46.4874  47.9434  47.9536  49.4680  51.1124  52.1963  52.1981  52.3163
    52.3230  52.3589  52.3714  52.5263  52.5273  52.5754  52.5785  52.7712
    52.8512  52.8520  53.6316  53.6402  53.7489  53.7498  53.8335  53.9430
    53.9467  54.1332

          k = 0.1000 0.3000-0.1000 (  4773 PWs)   bands (ev):

    30.2908  33.2190  35.6588  35.6723  37.5594  37.5707  38.0336  38.0468
    38.7203  39.8118  39.8231  40.0097  40.6106  41.4489  41.4492  41.6579
    41.6592  41.7652  42.7393  42.7471  43.1146  43.4035  43.4046  43.5626
    43.5627  43.8730  43.8781  44.2314  44.2353  44.4847  44.4931  44.9368
    46.4873  47.9479  47.9492  49.4680  51.1122  52.1966  52.1971  52.3174
    52.3210  52.3652  52.3688  52.5259  52.5261  52.5760  52.5784  52.7713
    52.8504  52.8515  53.6323  53.6403  53.7480  53.7493  53.8342  53.9437
    53.9462  54.1347

          k = 0.1000-0.3000 0.1000 (  4773 PWs)   bands (ev):

    30.2908  33.2190  35.6578  35.6734  37.5585  37.5715  38.0326  38.0479
    38.7204  39.8105  39.8238  40.0103  40.6105  41.4481  41.4501  41.6544
    41.6623  41.7655  42.7386  42.7476  43.1148  43.3996  43.4087  43.5617
    43.5632  43.8727  43.8784  44.2312  44.2357  44.4839  44.4938  44.9367
    46.4874  47.9434  47.9536  49.4680  51.1124  52.1963  52.1982  52.3131
    52.3225  52.3605  52.3740  52.5259  52.5271  52.5759  52.5788  52.7709
    52.8503  52.8522  53.6318  53.6408  53.7489  53.7499  53.8333  53.9429
    53.9460  54.1341

          k =-0.1000 0.1000 0.5000 (  4804 PWs)   bands (ev):

    31.5328  31.5428  36.6601  36.6701  36.6715  36.6794  38.5204  38.5287
    38.5300  38.5369  39.9299  39.9421  40.7316  40.7388  42.3797  42.3849
    42.3963  42.4031  42.4586  42.4620  42.4635  42.4667  43.7765  43.7780
    43.7874  43.7892  43.8829  43.8877  44.4822  44.4842  44.4913  44.4936
    48.6352  48.6533  49.9861  50.0001  50.0102  50.0256  51.5069  51.5223
    52.2532  52.2561  52.2665  52.2700  52.3192  52.3220  52.3231  52.3270
    52.8387  52.8448  52.8551  52.8591  54.0166  54.0428  54.0735  54.0742
    54.0765  54.0777

          k =-0.5000-0.1000 0.1000 (  4804 PWs)   bands (ev):

    31.5323  31.5433  36.6607  36.6673  36.6710  36.6821  38.5209  38.5264
    38.5298  38.5389  39.9293  39.9428  40.7312  40.7391  42.3786  42.3930
    42.3954  42.3967  42.4598  42.4617  42.4621  42.4673  43.7763  43.7773
    43.7882  43.7900  43.8824  43.8874  44.4815  44.4840  44.4926  44.4936
    48.6342  48.6542  49.9831  50.0066  50.0117  50.0204  51.5062  51.5230
    52.2519  52.2554  52.2684  52.2710  52.3186  52.3219  52.3248  52.3257
    52.8379  52.8426  52.8546  52.8622  54.0156  54.0454  54.0736  54.0742
    54.0755  54.0769

          k = 0.5000-0.1000-0.1000 (  4804 PWs)   bands (ev):

    31.5323  31.5433  36.6597  36.6674  36.6707  36.6834  38.5200  38.5260
    38.5292  38.5407  39.9293  39.9428  40.7313  40.7392  42.3806  42.3861
    42.3948  42.4015  42.4592  42.4622  42.4637  42.4665  43.7747  43.7778
    43.7862  43.7927  43.8830  43.8873  44.4807  44.4847  44.4921  44.4940
    48.6342  48.6542  49.9866  50.0006  50.0095  50.0254  51.5061  51.5229
    52.2474  52.2575  52.2652  52.2761  52.3188  52.3219  52.3239  52.3269
    52.8266  52.8480  52.8531  52.8699  54.0157  54.0455  54.0734  54.0741
    54.0761  54.0764

          k =-0.1000-0.5000 0.1000 (  4804 PWs)   bands (ev):

    31.5363  31.5393  36.6590  36.6666  36.6765  36.6790  38.5189  38.5261
    38.5342  38.5369  39.9341  39.9379  40.7342  40.7364  42.3890  42.3900
    42.3918  42.3928  42.4619  42.4622  42.4632  42.4636  43.7771  43.7827
    43.7842  43.7873  43.8843  43.8862  44.4843  44.4862  44.4884  44.4926
    48.6414  48.6469  50.0015  50.0031  50.0082  50.0096  51.5123  51.5169
    52.2523  52.2603  52.2631  52.2700  52.3215  52.3223  52.3234  52.3240
    52.8338  52.8460  52.8511  52.8664  54.0259  54.0343  54.0746  54.0748
    54.0757  54.0762

          k =-0.1000 0.5000-0.1000 (  4804 PWs)   bands (ev):

    31.5363  31.5393  36.6599  36.6646  36.6772  36.6795  38.5203  38.5241
    38.5349  38.5368  39.9341  39.9379  40.7341  40.7362  42.3824  42.3915
    42.3924  42.3979  42.4608  42.4619  42.4624  42.4654  43.7788  43.7825
    43.7839  43.7862  43.8839  43.8863  44.4851  44.4870  44.4883  44.4911
    48.6415  48.6470  49.9925  50.0075  50.0083  50.0135  51.5124  51.5171
    52.2577  52.2607  52.2623  52.2657  52.3201  52.3231  52.3233  52.3239
    52.8418  52.8476  52.8522  52.8560  54.0260  54.0345  54.0739  54.0749
    54.0758  54.0766

          k =-0.1000-0.3000 0.3000 (  4792 PWs)   bands (ev):

    30.9334  33.7799  33.7892  36.1697  36.3254  38.0547  38.4444  38.4532
    39.2421  39.2464  40.2189  40.2249  40.3598  41.1844  41.1894  41.4354
    41.4424  42.0214  42.0737  43.1755  43.1798  43.3365  43.3426  43.9721
    43.9747  44.3067  44.3095  44.5331  44.5448  44.5466  45.0566  45.0644
    46.8557  46.8639  49.6492  50.2235  50.2270  51.1687  51.1708  51.2113
    51.2195  51.2450  52.0547  52.0870  52.0928  52.1202  52.6807  52.6817
    52.7429  52.7489  53.7606  53.7674  53.9890  53.9894  54.2499  54.3129
    54.3233  54.5326

          k =-0.1000 0.3000-0.3000 (  4792 PWs)   bands (ev):

    30.9334  33.7799  33.7892  36.1698  36.3254  38.0549  38.4444  38.4530
    39.2422  39.2463  40.2189  40.2254  40.3593  41.1844  41.1894  41.4354
    41.4424  42.0213  42.0739  43.1756  43.1798  43.3365  43.3426  43.9721
    43.9747  44.3067  44.3095  44.5324  44.5450  44.5472  45.0565  45.0645
    46.8557  46.8639  49.6490  50.2237  50.2270  51.1692  51.1705  51.2112
    51.2197  51.2444  52.0546  52.0872  52.0928  52.1201  52.6807  52.6817
    52.7430  52.7487  53.7611  53.7677  53.9891  53.9894  54.2499  54.3125
    54.3229  54.5328

          k = 0.1000-0.3000-0.3000 (  4792 PWs)   bands (ev):

    30.9334  33.7778  33.7913  36.1696  36.3255  38.0546  38.4428  38.4549
    39.2413  39.2473  40.2167  40.2273  40.3597  41.1819  41.1918  41.4320
    41.4457  42.0214  42.0736  43.1745  43.1806  43.3353  43.3441  43.9716
    43.9752  44.3063  44.3100  44.5337  44.5437  44.5472  45.0528  45.0682
    46.8518  46.8679  49.6489  50.2227  50.2279  51.1692  51.1734  51.2033
    51.2161  51.2534  52.0555  52.0859  52.0930  52.1199  52.6807  52.6818
    52.7403  52.7515  53.7596  53.7689  53.9889  53.9895  54.2500  54.3073
    54.3286  54.5321

          k = 0.3000 0.1000-0.3000 (  4792 PWs)   bands (ev):

    30.9334  33.7775  33.7917  36.1696  36.3255  38.0551  38.4422  38.4549
    39.2410  39.2474  40.2173  40.2281  40.3585  41.1865  41.1872  41.4380
    41.4395  42.0214  42.0741  43.1745  43.1807  43.3350  43.3442  43.9714
    43.9754  44.3062  44.3103  44.5327  44.5453  44.5465  45.0598  45.0609
    46.8593  46.8604  49.6487  50.2229  50.2279  51.1699  51.1718  51.2063
    51.2186  51.2486  52.0539  52.0869  52.0935  52.1207  52.6808  52.6818
    52.7453  52.7460  53.7590  53.7693  53.9893  53.9896  54.2500  54.3169
    54.3183  54.5320

          k =-0.3000-0.1000-0.3000 (  4792 PWs)   bands (ev):

    30.9334  33.7764  33.7928  36.1697  36.3255  38.0549  38.4410  38.4561
    39.2407  39.2479  40.2164  40.2282  40.3591  41.1842  41.1896  41.4351
    41.4425  42.0213  42.0740  43.1738  43.1813  43.3342  43.3449  43.9711
    43.9757  44.3059  44.3105  44.5334  44.5447  44.5464  45.0563  45.0647
    46.8555  46.8641  49.6491  50.2220  50.2284  51.1694  51.1705  51.2137
    51.2188  51.2427  52.0547  52.0854  52.0945  52.1207  52.6806  52.6816
    52.7430  52.7487  53.7583  53.7700  53.9887  53.9894  54.2500  54.3121
    54.3236  54.5319

          k = 0.3000-0.1000 0.3000 (  4792 PWs)   bands (ev):

    30.9334  33.7764  33.7928  36.1696  36.3255  38.0551  38.4411  38.4561
    39.2405  39.2479  40.2167  40.2285  40.3587  41.1842  41.1896  41.4353
    41.4422  42.0214  42.0741  43.1739  43.1814  43.3342  43.3448  43.9711
    43.9757  44.3060  44.3104  44.5333  44.5447  44.5465  45.0563  45.0646
    46.8554  46.8641  49.6491  50.2220  50.2284  51.1702  51.1712  51.2131
    51.2181  51.2426  52.0537  52.0861  52.0945  52.1209  52.6806  52.6814
    52.7430  52.7488  53.7582  53.7699  53.9892  53.9895  54.2500  54.3119
    54.3237  54.5316

          k =-0.3000 0.1000 0.3000 (  4792 PWs)   bands (ev):

    30.9334  33.7775  33.7917  36.1697  36.3254  38.0548  38.4424  38.4549
    39.2413  39.2475  40.2165  40.2280  40.3590  41.1865  41.1872  41.4384
    41.4393  42.0214  42.0739  43.1744  43.1807  43.3350  43.3443  43.9713
    43.9755  44.3061  44.3102  44.5334  44.5454  44.5458  45.0601  45.0610
    46.8592  46.8604  49.6490  50.2226  50.2279  51.1705  51.1715  51.2044
    51.2185  51.2501  52.0528  52.0874  52.0939  52.1209  52.6807  52.6819
    52.7454  52.7462  53.7591  53.7694  53.9891  53.9895  54.2499  54.3168
    54.3187  54.5322

          k = 0.3000-0.3000 0.1000 (  4792 PWs)   bands (ev):

    30.9334  33.7804  33.7887  36.1697  36.3254  38.0553  38.4447  38.4523
    39.2423  39.2461  40.2198  40.2261  40.3580  41.1812  41.1926  41.4307
    41.4468  42.0213  42.0740  43.1759  43.1795  43.3369  43.3423  43.9722
    43.9745  44.3071  44.3093  44.5326  44.5440  44.5480  45.0515  45.0694
    46.8506  46.8691  49.6487  50.2241  50.2268  51.1682  51.1724  51.2077
    51.2185  51.2482  52.0553  52.0882  52.0919  52.1198  52.6806  52.6817
    52.7395  52.7522  53.7613  53.7669  53.9891  53.9893  54.2500  54.3052
    54.3302  54.5326

          k =-0.3000-0.3000-0.1000 (  4792 PWs)   bands (ev):

    30.9334  33.7822  33.7869  36.1698  36.3253  38.0550  38.4466  38.4506
    39.2433  39.2452  40.2205  40.2246  40.3586  41.1840  41.1898  41.4347
    41.4429  42.0213  42.0740  43.1766  43.1787  43.3381  43.3411  43.9728
    43.9740  44.3075  44.3089  44.5333  44.5446  44.5466  45.0560  45.0650
    46.8551  46.8644  49.6490  50.2245  50.2263  51.1695  51.1711  51.2085
    51.2181  51.2478  52.0560  52.0880  52.0910  52.1199  52.6810  52.6813
    52.7426  52.7492  53.7625  53.7660  53.9886  53.9895  54.2500  54.3117
    54.3237  54.5335

          k = 0.3000 0.3000-0.1000 (  4792 PWs)   bands (ev):

    30.9334  33.7822  33.7869  36.1696  36.3255  38.0552  38.4465  38.4506
    39.2431  39.2453  40.2210  40.2245  40.3582  41.1840  41.1898  41.4349
    41.4427  42.0213  42.0740  43.1767  43.1787  43.3381  43.3411  43.9727
    43.9740  44.3075  44.3089  44.5326  44.5450  44.5470  45.0559  45.0649
    46.8552  46.8645  49.6489  50.2245  50.2262  51.1704  51.1719  51.2094
    51.2165  51.2471  52.0547  52.0880  52.0917  52.1202  52.6811  52.6813
    52.7425  52.7491  53.7626  53.7655  53.9890  53.9893  54.2501  54.3118
    54.3238  54.5333

          k =-0.3000 0.3000 0.1000 (  4792 PWs)   bands (ev):

    30.9334  33.7804  33.7887  36.1698  36.3254  38.0550  38.4449  38.4523
    39.2426  39.2461  40.2187  40.2261  40.3587  41.1812  41.1927  41.4311
    41.4467  42.0213  42.0737  43.1758  43.1795  43.3370  43.3423  43.9721
    43.9745  44.3070  44.3093  44.5332  44.5438  44.5476  45.0516  45.0694
    46.8506  46.8692  49.6490  50.2240  50.2266  51.1689  51.1726  51.2043
    51.2190  51.2503  52.0540  52.0878  52.0931  52.1200  52.6807  52.6818
    52.7396  52.7522  53.7614  53.7673  53.9890  53.9892  54.2502  54.3053
    54.3302  54.5330

          k =-0.1000 0.3000 0.5000 (  4754 PWs)   bands (ev):

    32.1393  32.1494  34.8518  34.8616  37.1234  37.1325  38.9721  38.9797
    39.2328  39.2413  40.2008  40.2066  40.4795  40.4917  40.9917  40.9987
    42.1920  42.1931  42.6589  42.6709  42.9851  42.9889  43.9850  43.9886
    44.2161  44.2266  44.4779  44.4842  44.7798  44.7870  45.0484  45.0485
    47.9000  47.9170  48.8914  48.9087  50.1991  50.2114  50.7083  50.7208
    51.5924  51.6072  51.7645  51.7776  52.0401  52.0469  52.7123  52.7168
    53.2483  53.2620  53.2738  53.2891  53.8491  53.8739  54.1237  54.1251
    54.3163  54.3239

          k = 0.3000 0.1000 0.5000 (  4754 PWs)   bands (ev):

    32.1393  32.1494  34.8519  34.8617  37.1234  37.1324  38.9723  38.9802
    39.2326  39.2405  40.2008  40.2066  40.4795  40.4917  40.9918  40.9989
    42.1920  42.1932  42.6588  42.6709  42.9852  42.9889  43.9849  43.9883
    44.2161  44.2265  44.4780  44.4842  44.7799  44.7870  45.0483  45.0486
    47.9000  47.9169  48.8913  48.9087  50.1993  50.2114  50.7082  50.7208
    51.5921  51.6069  51.7647  51.7780  52.0402  52.0471  52.7120  52.7167
    53.2441  53.2614  53.2781  53.2896  53.8492  53.8739  54.1237  54.1251
    54.3163  54.3241

          k = 0.3000-0.1000-0.5000 (  4754 PWs)   bands (ev):

    32.1393  32.1494  34.8519  34.8617  37.1234  37.1324  38.9724  38.9800
    39.2325  39.2410  40.2008  40.2065  40.4795  40.4917  40.9918  40.9990
    42.1920  42.1932  42.6588  42.6709  42.9852  42.9889  43.9850  43.9884
    44.2161  44.2266  44.4779  44.4842  44.7799  44.7870  45.0483  45.0486
    47.8999  47.9170  48.8914  48.9086  50.1992  50.2114  50.7083  50.7208
    51.5927  51.6072  51.7641  51.7777  52.0400  52.0471  52.7124  52.7167
    53.2429  53.2621  53.2760  53.2919  53.8490  53.8738  54.1238  54.1252
    54.3162  54.3239

          k =-0.5000-0.3000 0.1000 (  4754 PWs)   bands (ev):

    32.1388  32.1499  34.8513  34.8621  37.1229  37.1331  38.9720  38.9808
    39.2319  39.2411  40.2002  40.2066  40.4791  40.4926  40.9915  40.9991
    42.1919  42.1931  42.6583  42.6717  42.9850  42.9890  43.9846  43.9886
    44.2158  44.2273  44.4777  44.4845  44.7794  44.7873  45.0484  45.0485
    47.8991  47.9179  48.8904  48.9097  50.1984  50.2120  50.7075  50.7216
    51.5920  51.6081  51.7637  51.7781  52.0395  52.0472  52.7120  52.7169
    53.2490  53.2632  53.2720  53.2893  53.8479  53.8755  54.1235  54.1251
    54.3157  54.3242

          k = 0.5000-0.3000-0.1000 (  4754 PWs)   bands (ev):

    32.1388  32.1499  34.8513  34.8621  37.1229  37.1331  38.9713  38.9806
    39.2326  39.2411  40.2004  40.2069  40.4791  40.4926  40.9914  40.9989
    42.1919  42.1931  42.6584  42.6716  42.9850  42.9890  43.9845  43.9885
    44.2158  44.2274  44.4776  44.4846  44.7794  44.7873  45.0483  45.0485
    47.8990  47.9180  48.8905  48.9097  50.1984  50.2121  50.7073  50.7215
    51.5920  51.6076  51.7638  51.7788  52.0394  52.0474  52.7121  52.7172
    53.2446  53.2628  53.2745  53.2908  53.8478  53.8754  54.1235  54.1251
    54.3158  54.3241

          k =-0.1000-0.5000 0.3000 (  4754 PWs)   bands (ev):

    32.1428  32.1459  34.8552  34.8582  37.1265  37.1293  38.9743  38.9774
    39.2361  39.2382  40.2026  40.2045  40.4839  40.4877  40.9942  40.9962
    42.1923  42.1927  42.6630  42.6669  42.9865  42.9876  43.9860  43.9871
    44.2199  44.2233  44.4801  44.4820  44.7822  44.7846  45.0484  45.0485
    47.9058  47.9110  48.8974  48.9028  50.2034  50.2070  50.7126  50.7165
    51.5977  51.6024  51.7690  51.7728  52.0424  52.0445  52.7138  52.7153
    53.2514  53.2602  53.2733  53.2873  53.8579  53.8658  54.1242  54.1247
    54.3190  54.3212

          k =-0.1000 0.5000-0.3000 (  4754 PWs)   bands (ev):

    32.1428  32.1459  34.8552  34.8582  37.1265  37.1294  38.9751  38.9774
    39.2354  39.2380  40.2028  40.2044  40.4838  40.4876  40.9942  40.9963
    42.1923  42.1927  42.6630  42.6669  42.9864  42.9876  43.9860  43.9872
    44.2199  44.2231  44.4801  44.4821  44.7822  44.7846  45.0484  45.0485
    47.9059  47.9111  48.8974  48.9027  50.2034  50.2071  50.7126  50.7163
    51.5969  51.6023  51.7697  51.7726  52.0425  52.0446  52.7137  52.7152
    53.2532  53.2615  53.2722  53.2865  53.8579  53.8657  54.1242  54.1246
    54.3190  54.3212

          k = 0.3000-0.5000 0.1000 (  4754 PWs)   bands (ev):

    32.1428  32.1459  34.8552  34.8582  37.1266  37.1293  38.9749  38.9775
    39.2356  39.2379  40.2026  40.2046  40.4837  40.4875  40.9942  40.9964
    42.1925  42.1928  42.6630  42.6668  42.9864  42.9876  43.9862  43.9872
    44.2197  44.2230  44.4801  44.4820  44.7824  44.7846  45.0483  45.0484
    47.9060  47.9111  48.8974  48.9027  50.2035  50.2070  50.7126  50.7164
    51.5975  51.6025  51.7690  51.7730  52.0423  52.0444  52.7137  52.7153
    53.2513  53.2607  53.2752  53.2861  53.8578  53.8657  54.1242  54.1246
    54.3189  54.3210

          k = 0.3000 0.5000-0.1000 (  4754 PWs)   bands (ev):

    32.1428  32.1459  34.8552  34.8582  37.1266  37.1293  38.9750  38.9774
    39.2352  39.2380  40.2031  40.2046  40.4837  40.4876  40.9941  40.9962
    42.1925  42.1928  42.6630  42.6668  42.9864  42.9876  43.9862  43.9872
    44.2196  44.2230  44.4800  44.4822  44.7822  44.7846  45.0484  45.0485
    47.9058  47.9110  48.8976  48.9028  50.2034  50.2071  50.7126  50.7163
    51.5971  51.6027  51.7695  51.7727  52.0424  52.0446  52.7136  52.7153
    53.2483  53.2567  53.2787  53.2888  53.8578  53.8658  54.1243  54.1247
    54.3190  54.3212

          k =-0.5000 0.1000 0.3000 (  4754 PWs)   bands (ev):

    32.1388  32.1499  34.8513  34.8622  37.1229  37.1330  38.9712  38.9801
    39.2326  39.2419  40.2007  40.2068  40.4790  40.4925  40.9913  40.9990
    42.1919  42.1931  42.6584  42.6716  42.9849  42.9890  43.9847  43.9885
    44.2156  44.2274  44.4776  44.4845  44.7795  44.7874  45.0483  45.0485
    47.8990  47.9179  48.8905  48.9096  50.1986  50.2121  50.7075  50.7215
    51.5917  51.6079  51.7637  51.7783  52.0396  52.0480  52.7121  52.7170
    53.2417  53.2601  53.2755  53.2954  53.8478  53.8753  54.1236  54.1250
    54.3158  54.3243

          k = 0.5000-0.1000 0.3000 (  4754 PWs)   bands (ev):

    32.1388  32.1499  34.8513  34.8622  37.1228  37.1329  38.9716  38.9807
    39.2324  39.2413  40.2003  40.2067  40.4790  40.4926  40.9915  40.9991
    42.1919  42.1931  42.6583  42.6716  42.9849  42.9890  43.9848  43.9885
    44.2157  44.2273  44.4776  44.4845  44.7795  44.7873  45.0484  45.0485
    47.8990  47.9179  48.8905  48.9096  50.1985  50.2120  50.7076  50.7216
    51.5918  51.6081  51.7636  51.7782  52.0395  52.0474  52.7121  52.7168
    53.2441  53.2625  53.2749  53.2919  53.8478  53.8755  54.1237  54.1252
    54.3157  54.3244

          k =-0.5000 0.1000 0.5000 (  4740 PWs)   bands (ev):

    33.2778  33.2867  33.2958  33.3068  37.9933  38.0010  38.0092  38.0187
    39.8143  39.8211  39.8279  39.8365  41.4513  41.4592  41.4599  41.4658
    41.4685  41.4758  41.4786  41.4864  43.8102  43.8149  43.8163  43.8204
    44.8954  44.8982  44.9005  44.9031  44.9055  44.9096  44.9123  44.9143
    48.7917  48.8071  48.8173  48.8203  48.8223  48.8359  48.8426  48.8446
    51.7307  51.7421  51.7473  51.7569  53.3623  53.3743  53.3806  53.3899
    53.5682  53.5717  53.5804  53.5827  53.5921  53.5974  53.6058  53.6185
    54.1921  54.1962

          k =-0.5000 0.5000 0.1000 (  4740 PWs)   bands (ev):

    33.2848  33.2858  33.2956  33.3008  37.9994  38.0004  38.0090  38.0136
    39.8197  39.8204  39.8277  39.8317  41.4504  41.4526  41.4595  41.4676
    41.4700  41.4797  41.4815  41.4844  43.8120  43.8139  43.8175  43.8183
    44.8950  44.8961  44.9015  44.9051  44.9056  44.9103  44.9108  44.9144
    48.8047  48.8094  48.8162  48.8194  48.8219  48.8285  48.8381  48.8437
    51.7357  51.7403  51.7494  51.7514  53.3676  53.3733  53.3822  53.3851
    53.5624  53.5731  53.5823  53.5829  53.5909  53.6021  53.6040  53.6177
    54.1936  54.1949

          k =-0.3000-0.3000 0.3000 (  4788 PWs)   bands (ev):

    31.5538  34.3144  34.3243  34.3319  36.7605  36.7701  36.7773  38.8461
    39.7429  39.7475  39.7509  41.7441  41.7477  41.7518  41.8635  41.8728
    41.8767  41.8777  41.8915  41.9000  43.7904  43.7970  43.7989  43.8016
    43.8040  43.8088  43.8115  43.8179  43.8230  44.8375  44.8383  44.8391
    48.4438  48.4510  48.4583  49.7961  49.8014  49.8056  51.4769  51.4800
    51.4825  51.4873  51.4884  51.4928  52.3553  52.3611  52.3696  52.3757
    52.3787  52.3878  52.4243  52.4289  52.4337  53.1020  54.7229  54.7272
    54.7327  55.3087

          k =-0.3000 0.3000-0.3000 (  4788 PWs)   bands (ev):

    31.5538  34.3132  34.3235  34.3338  36.7594  36.7693  36.7792  38.8462
    39.7423  39.7471  39.7517  41.7412  41.7477  41.7548  41.8612  41.8708
    41.8796  41.8838  41.8905  41.8963  43.7927  43.7947  43.7980  43.8002
    43.8021  43.8046  43.8126  43.8206  43.8276  44.8373  44.8382  44.8393
    48.4383  48.4509  48.4638  49.7954  49.8011  49.8067  51.4745  51.4809
    51.4832  51.4873  51.4899  51.4914  52.3527  52.3641  52.3682  52.3756
    52.3795  52.3891  52.4224  52.4290  52.4354  53.1020  54.7219  54.7275
    54.7329  55.3068

          k = 0.3000-0.3000-0.3000 (  4788 PWs)   bands (ev):

    31.5538  34.3119  34.3261  34.3326  36.7580  36.7718  36.7780  38.8461
    39.7419  39.7483  39.7512  41.7401  41.7477  41.7557  41.8629  41.8715
    41.8788  41.8835  41.8893  41.8964  43.7878  43.7934  43.7971  43.8007
    43.8033  43.8079  43.8121  43.8211  43.8295  44.8375  44.8380  44.8395
    48.4370  48.4510  48.4653  49.7947  49.8023  49.8058  51.4743  51.4789
    51.4813  51.4872  51.4910  51.4954  52.3537  52.3607  52.3689  52.3704
    52.3818  52.3889  52.4220  52.4283  52.4395  53.1030  54.7221  54.7263
    54.7333  55.3066

          k =-0.3000 0.3000 0.5000 (  4758 PWs)   bands (ev):

    32.7214  32.7315  35.3397  35.3500  35.3517  35.3599  37.6227  37.6318
    40.6679  40.6728  40.6745  40.6785  41.0135  41.0258  42.6926  42.6967
    42.7081  42.7145  42.7172  42.7191  42.7274  42.7297  43.1405  43.1424
    43.1521  43.1544  44.4873  44.4912  44.4919  44.4968  44.9299  44.9381
    48.2772  48.2891  50.2938  50.3086  50.3150  50.3250  50.3350  50.3435
    50.3464  50.3628  51.5222  51.5278  51.5393  51.5429  51.9440  51.9508
    51.9552  51.9624  53.2588  53.2813  53.5673  53.5725  53.5773  53.5816
    55.2165  55.2281

          k =-0.5000-0.3000 0.3000 (  4758 PWs)   bands (ev):

    32.7209  32.7320  35.3403  35.3472  35.3512  35.3627  37.6222  37.6324
    40.6681  40.6713  40.6742  40.6795  41.0131  41.0267  42.6910  42.7043
    42.7064  42.7096  42.7173  42.7207  42.7246  42.7308  43.1402  43.1418
    43.1525  43.1556  44.4856  44.4908  44.4937  44.4969  44.9294  44.9385
    48.2765  48.2898  50.2921  50.3110  50.3174  50.3230  50.3345  50.3403
    50.3513  50.3605  51.5208  51.5260  51.5392  51.5462  51.9434  51.9549
    51.9563  51.9578  53.2577  53.2825  53.5663  53.5701  53.5790  53.5840
    55.2160  55.2284

          k = 0.5000-0.3000-0.3000 (  4758 PWs)   bands (ev):

    32.7209  32.7320  35.3392  35.3476  35.3507  35.3638  37.6221  37.6323
    40.6671  40.6708  40.6733  40.6821  41.0131  41.0267  42.6935  42.6978
    42.7070  42.7102  42.7189  42.7203  42.7281  42.7288  43.1392  43.1419
    43.1507  43.1580  44.4873  44.4900  44.4925  44.4974  44.9294  44.9385
    48.2765  48.2899  50.2949  50.3073  50.3166  50.3248  50.3321  50.3427
    50.3485  50.3635  51.5091  51.5315  51.5367  51.5549  51.9444  51.9520
    51.9540  51.9623  53.2576  53.2826  53.5621  53.5735  53.5767  53.5859
    55.2167  55.2284

          k =-0.3000-0.5000 0.3000 (  4758 PWs)   bands (ev):

    32.7249  32.7280  35.3389  35.3465  35.3569  35.3591  37.6258  37.6287
    40.6658  40.6720  40.6762  40.6794  41.0178  41.0217  42.7012  42.7020
    42.7044  42.7049  42.7219  42.7221  42.7238  42.7243  43.1414  43.1478
    43.1495  43.1511  44.4873  44.4898  44.4938  44.4963  44.9326  44.9352
    48.2813  48.2849  50.3064  50.3118  50.3138  50.3175  50.3354  50.3409
    50.3498  50.3549  51.5168  51.5296  51.5352  51.5505  51.9515  51.9521
    51.9540  51.9548  53.2666  53.2738  53.5673  53.5711  53.5776  53.5826
    55.2205  55.2238

          k =-0.3000 0.5000-0.3000 (  4758 PWs)   bands (ev):

    32.7249  32.7280  35.3395  35.3444  35.3575  35.3599  37.6259  37.6287
    40.6679  40.6704  40.6768  40.6782  41.0178  41.0217  42.6946  42.7035
    42.7047  42.7100  42.7174  42.7221  42.7236  42.7292  43.1432  43.1467
    43.1482  43.1514  44.4874  44.4889  44.4941  44.4968  44.9326  44.9353
    48.2814  48.2849  50.3006  50.3100  50.3138  50.3176  50.3412  50.3452
    50.3484  50.3531  51.5258  51.5318  51.5355  51.5393  51.9470  51.9538
    51.9545  51.9569  53.2667  53.2739  53.5708  53.5748  53.5756  53.5778
    55.2207  55.2239

          k =-0.5000 0.3000 0.5000 (  4772 PWs)   bands (ev):

    33.8181  33.8270  33.8361  33.8470  36.2850  36.2934  36.3021  36.3125
    41.5384  41.5430  41.5484  41.5544  41.9604  41.9686  41.9690  41.9750
    41.9778  41.9852  41.9882  41.9959  43.6121  43.6140  43.6142  43.6158
    43.9851  43.9923  43.9939  43.9988  44.0014  44.0080  44.0113  44.0175
    49.7238  49.7385  49.7481  49.7517  49.7529  49.7633  49.7734  49.7744
    51.0300  51.0404  51.0423  51.0522  51.8921  51.9046  51.9081  51.9190
    52.4026  52.4118  52.4161  52.4214  52.4266  52.4327  52.4413  52.4468
    56.0398  56.0471

          k =-0.5000 0.5000 0.3000 (  4772 PWs)   bands (ev):

    33.8251  33.8261  33.8358  33.8410  36.2916  36.2927  36.3019  36.3069
    41.5422  41.5427  41.5481  41.5511  41.9595  41.9616  41.9685  41.9769
    41.9795  41.9893  41.9908  41.9943  43.6127  43.6134  43.6147  43.6150
    43.9849  43.9854  43.9929  44.0007  44.0028  44.0119  44.0128  44.0169
    49.7309  49.7386  49.7460  49.7512  49.7533  49.7603  49.7685  49.7772
    51.0338  51.0374  51.0454  51.0483  51.8966  51.9016  51.9116  51.9142
    52.4016  52.4128  52.4158  52.4211  52.4261  52.4321  52.4398  52.4499
    56.0460  56.0471

     the Fermi energy is    52.7232 ev

!    total energy              =   -1130.03954259 Ry
     Harris-Foulkes estimate   =   -1130.03954291 Ry
     estimated scf accuracy    <       0.00000009 Ry

     total all-electron energy =    -15406.608565 Ry

     The total energy is the sum of the following terms:

     one-electron contribution =     469.15446313 Ry
     hartree contribution      =       1.75004196 Ry
     xc contribution           =    -138.28838821 Ry
     ewald contribution        =    -326.84024986 Ry
     one-center paw contrib.   =   -1135.81939224 Ry
     smearing contrib. (-TS)   =       0.00398263 Ry

     convergence has been achieved in  30 iterations

     Forces acting on atoms (cartesian axes, Ry/au):

     atom    1 type  1   force =    -0.00322383   -0.00402325    0.00096667
     atom    2 type  1   force =    -0.00475613   -0.00179396    0.01297474
     atom    3 type  1   force =     0.01320087    0.00113625   -0.02061028
     atom    4 type  1   force =    -0.00671149    0.00292849   -0.02380441
     atom    5 type  1   force =    -0.01475379   -0.01277162    0.01645956
     atom    6 type  1   force =    -0.01065571    0.01109696   -0.00653193
     atom    7 type  1   force =    -0.01505472   -0.03192399    0.01266701
     atom    8 type  1   force =    -0.00596814    0.00967161   -0.00446322
     atom    9 type  1   force =     0.01991761    0.00536087   -0.00128875
     atom   10 type  1   force =    -0.00613237    0.00986939   -0.02731795
     atom   11 type  1   force =    -0.00977771   -0.01897617   -0.01252395
     atom   12 type  1   force =    -0.01564522   -0.00546389   -0.01001646
     atom   13 type  1   force =    -0.00450870   -0.01724619    0.00615822
     atom   14 type  1   force =    -0.01005100    0.02023393    0.01933867
     atom   15 type  1   force =    -0.01760111    0.01481332    0.01760034
     atom   16 type  1   force =     0.02451320    0.01174997    0.01455783
     atom   17 type  1   force =    -0.01756632   -0.00456571   -0.00121770
     atom   18 type  1   force =     0.01022432   -0.00341550    0.01473056
     atom   19 type  1   force =     0.01991470    0.01297966   -0.00401586
     atom   20 type  1   force =     0.00637346    0.02101738   -0.00956979
     atom   21 type  1   force =     0.00480754   -0.02221039    0.00973152
     atom   22 type  1   force =    -0.00230392    0.02352298    0.01246963
     atom   23 type  1   force =     0.01296382   -0.00941419   -0.01228032
     atom   24 type  1   force =     0.01419684    0.00466168    0.00407142
     atom   25 type  1   force =    -0.01176262   -0.00040129    0.00575009
     atom   26 type  1   force =     0.01124701   -0.00865281    0.00378191
     atom   27 type  1   force =    -0.00871751   -0.00792500    0.00334168
     atom   28 type  1   force =     0.00486143    0.00059359    0.00555359
     atom   29 type  1   force =     0.03868738   -0.01847373    0.00211189
     atom   30 type  1   force =    -0.00450165    0.00761294   -0.00097958
     atom   31 type  1   force =    -0.01083052   -0.00560631   -0.01711915
     atom   32 type  1   force =    -0.00038571    0.01561499   -0.01052597

     Total force =     0.127893     Total SCF correction =     0.000320


     Computing stress (Cartesian axis) and pressure

          total   stress  (Ry/bohr**3)                   (kbar)     P=59601.76
   0.40516347   0.00000005   0.00000098      59601.59      0.01      0.14
   0.00000005   0.40516541  -0.00000142          0.01  59601.88     -0.21
   0.00000098  -0.00000142   0.40516487          0.14     -0.21  59601.80


     Writing output data file fe_scf_fcc_2.save/
 
     init_run     :      2.61s CPU      2.78s WALL (       1 calls)
     electrons    :    127.72s CPU    133.21s WALL (       1 calls)
     forces       :      0.57s CPU      0.63s WALL (       1 calls)
     stress       :      0.96s CPU      0.98s WALL (       1 calls)

     Called by init_run:
     wfcinit      :      2.46s CPU      2.62s WALL (       1 calls)
     potinit      :      0.08s CPU      0.09s WALL (       1 calls)
     hinit0       :      0.05s CPU      0.06s WALL (       1 calls)

     Called by electrons:
     c_bands      :    113.90s CPU    118.37s WALL (      30 calls)
     sum_band     :     11.75s CPU     12.72s WALL (      30 calls)
     v_of_rho     :      0.07s CPU      0.08s WALL (      31 calls)
     newd         :      0.05s CPU      0.06s WALL (      31 calls)
     PAW_pot      :      1.96s CPU      1.98s WALL (      31 calls)
     mix_rho      :      0.04s CPU      0.04s WALL (      30 calls)

     Called by c_bands:
     init_us_2    :      1.29s CPU      1.33s WALL (    3969 calls)
     cegterg      :    109.28s CPU    113.37s WALL (    1890 calls)

     Called by sum_band:
     sum_band:bec :      0.20s CPU      0.21s WALL (    1890 calls)
     addusdens    :      0.03s CPU      0.04s WALL (      30 calls)

     Called by *egterg:
     h_psi        :     51.60s CPU     55.00s WALL (    7280 calls)
     s_psi        :      4.60s CPU      4.63s WALL (    7280 calls)
     g_psi        :      0.28s CPU      0.29s WALL (    5327 calls)
     cdiaghg      :     43.12s CPU     43.24s WALL (    7217 calls)

     Called by h_psi:
     h_psi:pot    :     51.33s CPU     54.72s WALL (    7280 calls)
     h_psi:calbec :      6.57s CPU      7.74s WALL (    7280 calls)
     vloc_psi     :     39.78s CPU     41.95s WALL (    7280 calls)
     add_vuspsi   :      4.94s CPU      4.99s WALL (    7280 calls)

     General routines
     calbec       :      9.28s CPU     11.04s WALL (    9485 calls)
     fft          :      0.11s CPU      0.13s WALL (     367 calls)
     ffts         :      0.01s CPU      0.01s WALL (      30 calls)
     fftw         :     45.06s CPU     47.48s WALL (  645518 calls)
 
     Parallel routines
     fft_scatt_xy :      3.40s CPU      3.59s WALL (  645915 calls)
     fft_scatt_yz :     27.62s CPU     29.25s WALL (  645915 calls)
 
     PWSCF        :  2m13.05s CPU     2m19.22s WALL

 
   This run was terminated on:  23:59:44  22Oct2019            

=------------------------------------------------------------------------------=
   JOB DONE.
=------------------------------------------------------------------------------=
