
     Program PWSCF v.6.3 starts on 22Oct2019 at 19:11: 2 

     This program is part of the open-source Quantum ESPRESSO suite
     for quantum simulation of materials; please cite
         "P. Giannozzi et al., J. Phys.:Condens. Matter 21 395502 (2009);
         "P. Giannozzi et al., J. Phys.:Condens. Matter 29 465901 (2017);
          URL http://www.quantum-espresso.org", 
     in publications or presentations arising from this work. More details at
     http://www.quantum-espresso.org/quote

     Parallel version (MPI & OpenMP), running on      20 processor cores
     Number of MPI processes:                20
     Threads/MPI process:                     1

     MPI processes distributed on     1 nodes
     R & G space division:  proc/nbgrp/npool/nimage =      20
     Reading input from /rds/homes/b/bxp912/jobs/20191022_test/wd/runpwscf/file_10231.in
Warning: card &IONS ignored
Warning: card ION_DYNAMICS = 'BFGS', ignored
Warning: card / ignored
Warning: card &CELL ignored
Warning: card CELL_DYNAMICS = 'BFGS', ignored
Warning: card CELL_FACTOR = 2.0, ignored
Warning: card PRESS = 0.0, ignored
Warning: card / ignored

     Current dimensions of program PWSCF are:
     Max number of different atomic species (ntypx) = 10
     Max number of k-points (npk) =  40000
     Max angular momentum in pseudopotentials (lmaxx) =  3
     Message from routine read_upf::
     Pseudo file /rds/homes/b/bxp912/pp/Al.pbe-nl-kjpaw_psl.1.0.0.UPF has been successfully fixed on the fly.
To avoid this message in the future you can permanently fix 
 your pseudo files following instructions given in: 
https://gitlab.com/QEF/q-e/blob/master/upftools/how_to_fix_upf.md
               file Al.pbe-nl-kjpaw_psl.1.0.0.UPF: wavefunction(s)  3S 3P renormalized

     Subspace diagonalization in iterative solution of the eigenvalue problem:
     a serial algorithm will be used

 
     Parallelization info
     --------------------
     sticks:   dense  smooth     PW     G-vecs:    dense   smooth      PW
     Min          52      52     20                 1262     1262     300
     Max          53      53     21                 1265     1265     303
     Sum        1041    1041    401                25269    25269    6031
 


     bravais-lattice index     =            0
     lattice parameter (alat)  =       8.0800  a.u.
     unit-cell volume          =     527.5141 (a.u.)^3
     number of atoms/cell      =           32
     number of atomic types    =            1
     number of electrons       =        96.00
     number of Kohn-Sham states=           58
     kinetic-energy cutoff     =      66.0000  Ry
     charge density cutoff     =     200.0000  Ry
     convergence threshold     =      1.0E-06
     mixing beta               =       0.1000
     number of iterations used =           10  TF        mixing
     Exchange-correlation      = SLA PW PBX PBC ( 1  4  3  4 0 0)

     celldm(1)=   8.080000  celldm(2)=   0.000000  celldm(3)=   0.000000
     celldm(4)=   0.000000  celldm(5)=   0.000000  celldm(6)=   0.000000

     crystal axes: (cart. coord. in units of alat)
               a(1) = (   1.000000   0.000000   0.000000 )  
               a(2) = (   0.000000   1.000000   0.000000 )  
               a(3) = (   0.000000   0.000000   1.000000 )  

     reciprocal axes: (cart. coord. in units 2 pi/alat)
               b(1) = (  1.000000  0.000000  0.000000 )  
               b(2) = (  0.000000  1.000000  0.000000 )  
               b(3) = (  0.000000  0.000000  1.000000 )  


     PseudoPot. # 1 for Al read from file:
     /rds/homes/b/bxp912/pp/Al.pbe-nl-kjpaw_psl.1.0.0.UPF
     MD5 check sum: 339dbea23cf3ab9a065ad45c0f9085d7
     Pseudo is Projector augmented-wave + core cor, Zval =  3.0
     Generated using "atomic" code by A. Dal Corso v.5.1
     Shape of augmentation charge: PSQ
     Using radial grid of 1135 points,  4 beta functions with: 
                l(1) =   0
                l(2) =   0
                l(3) =   1
                l(4) =   1
     Q(r) pseudized with 0 coefficients 


     atomic species   valence    mass     pseudopotential
        Al             3.00    26.98200     Al( 1.00)

     No symmetry found



   Cartesian axes

     site n.     atom                  positions (alat units)
         1           Al  tau(   1) = (  -0.0000618   0.0000180   0.0001286  )
         2           Al  tau(   2) = (   0.2501504   0.2496409   0.0001329  )
         3           Al  tau(   3) = (   0.2498245   0.0000576   0.2505585  )
         4           Al  tau(   4) = (  -0.0000378   0.2504134   0.2503472  )
         5           Al  tau(   5) = (   0.0004835   0.0004765   0.4997751  )
         6           Al  tau(   6) = (   0.2502257   0.2496836   0.5000068  )
         7           Al  tau(   7) = (   0.2500525   0.0002908   0.7497884  )
         8           Al  tau(   8) = (   0.0001038   0.2502148   0.7503971  )
         9           Al  tau(   9) = (   0.0004488   0.5002037  -0.0000292  )
        10           Al  tau(  10) = (   0.2502638   0.7503330   0.0007661  )
        11           Al  tau(  11) = (   0.2503574   0.5002057   0.2504745  )
        12           Al  tau(  12) = (   0.0000725   0.7500861   0.2500479  )
        13           Al  tau(  13) = (   0.0002082   0.5002952   0.5001871  )
        14           Al  tau(  14) = (   0.2499320   0.7501195   0.4997555  )
        15           Al  tau(  15) = (   0.2506361   0.4996019   0.7494255  )
        16           Al  tau(  16) = (  -0.0006199   0.7494434   0.7499870  )
        17           Al  tau(  17) = (   0.5003850  -0.0001898  -0.0000732  )
        18           Al  tau(  18) = (   0.7498343   0.2501778  -0.0004407  )
        19           Al  tau(  19) = (   0.7493109  -0.0001812   0.2501458  )
        20           Al  tau(  20) = (   0.4999530   0.2499270   0.2496819  )
        21           Al  tau(  21) = (   0.4998509   0.0005536   0.4999482  )
        22           Al  tau(  22) = (   0.7501292   0.2494251   0.4999098  )
        23           Al  tau(  23) = (   0.7500676  -0.0001298   0.7500485  )
        24           Al  tau(  24) = (   0.5000215   0.2497853   0.7499902  )
        25           Al  tau(  25) = (   0.4997214   0.5002185  -0.0004144  )
        26           Al  tau(  26) = (   0.7495697   0.7501849   0.0005172  )
        27           Al  tau(  27) = (   0.7501903   0.4996254   0.2498983  )
        28           Al  tau(  28) = (   0.5001659   0.7496046   0.2503955  )
        29           Al  tau(  29) = (   0.4993878   0.5001941   0.5000764  )
        30           Al  tau(  30) = (   0.7503133   0.7499759   0.4997253  )
        31           Al  tau(  31) = (   0.7499001   0.5000179   0.7502634  )
        32           Al  tau(  32) = (   0.5000268   0.7499029   0.7498445  )

     number of k points=    14  Marzari-Vanderbilt smearing, width (Ry)=  0.0010
                       cart. coord. in units 2pi/alat
        k(    1) = (   0.1666667   0.1666667   0.1666667), wk =   0.1481481
        k(    2) = (   0.1666667   0.1666667  -0.5000000), wk =   0.1481481
        k(    3) = (   0.1666667  -0.5000000  -0.5000000), wk =   0.1481481
        k(    4) = (  -0.5000000  -0.5000000  -0.5000000), wk =   0.0740741
        k(    5) = (  -0.1666667  -0.1666667   0.1666667), wk =   0.1481481
        k(    6) = (  -0.1666667   0.1666667  -0.1666667), wk =   0.1481481
        k(    7) = (   0.1666667  -0.1666667  -0.1666667), wk =   0.1481481
        k(    8) = (  -0.1666667   0.1666667   0.5000000), wk =   0.1481481
        k(    9) = (  -0.5000000  -0.1666667   0.1666667), wk =   0.1481481
        k(   10) = (   0.5000000  -0.1666667  -0.1666667), wk =   0.1481481
        k(   11) = (  -0.1666667  -0.5000000   0.1666667), wk =   0.1481481
        k(   12) = (  -0.1666667   0.5000000  -0.1666667), wk =   0.1481481
        k(   13) = (  -0.5000000   0.1666667   0.5000000), wk =   0.1481481
        k(   14) = (  -0.5000000   0.5000000   0.1666667), wk =   0.1481481

     Dense  grid:    25269 G-vectors     FFT dimensions: (  40,  40,  40)

     Estimated max dynamical RAM per process >      10.55 MB

     Estimated total dynamical RAM >     210.93 MB

     Initial potential from superposition of free atoms

     starting charge   95.92671, renormalised to   96.00000
     Starting wfcs are  128 randomized atomic wfcs
     Checking if some PAW data can be deallocated... 

     total cpu time spent up to now is        1.3 secs

     Self-consistent Calculation

     iteration #  1     ecut=    66.00 Ry     beta= 0.10
     Davidson diagonalization with overlap
     ethr =  1.00E-02,  avg # of iterations =  5.5

     total cpu time spent up to now is        3.2 secs

     total energy              =   -1133.21493290 Ry
     Harris-Foulkes estimate   =   -1134.45761233 Ry
     estimated scf accuracy    <       1.39557868 Ry

     iteration #  2     ecut=    66.00 Ry     beta= 0.10
     Davidson diagonalization with overlap
     ethr =  1.45E-03,  avg # of iterations =  2.8

     total cpu time spent up to now is        4.2 secs

     total energy              =   -1129.55879139 Ry
     Harris-Foulkes estimate   =   -1133.30515140 Ry
     estimated scf accuracy    <       1.21275719 Ry

     iteration #  3     ecut=    66.00 Ry     beta= 0.10
     Davidson diagonalization with overlap
     ethr =  1.26E-03,  avg # of iterations =  3.9

     total cpu time spent up to now is        5.6 secs

     total energy              =   -1130.06362284 Ry
     Harris-Foulkes estimate   =   -1130.54231034 Ry
     estimated scf accuracy    <       0.20102220 Ry

     iteration #  4     ecut=    66.00 Ry     beta= 0.10
     Davidson diagonalization with overlap
     ethr =  2.09E-04,  avg # of iterations =  3.4

     total cpu time spent up to now is        6.6 secs

     total energy              =   -1129.97651109 Ry
     Harris-Foulkes estimate   =   -1130.09267232 Ry
     estimated scf accuracy    <       0.11823892 Ry

     iteration #  5     ecut=    66.00 Ry     beta= 0.10
     Davidson diagonalization with overlap
     ethr =  1.23E-04,  avg # of iterations =  2.2

     total cpu time spent up to now is        7.5 secs

     total energy              =   -1129.98916060 Ry
     Harris-Foulkes estimate   =   -1129.98619944 Ry
     estimated scf accuracy    <       0.02362693 Ry

     iteration #  6     ecut=    66.00 Ry     beta= 0.10
     Davidson diagonalization with overlap
     ethr =  2.46E-05,  avg # of iterations =  4.1

     total cpu time spent up to now is        8.7 secs

     total energy              =   -1130.00139943 Ry
     Harris-Foulkes estimate   =   -1129.99507719 Ry
     estimated scf accuracy    <       0.00367728 Ry

     iteration #  7     ecut=    66.00 Ry     beta= 0.10
     Davidson diagonalization with overlap
     ethr =  3.83E-06,  avg # of iterations =  9.1

     total cpu time spent up to now is       10.8 secs

     total energy              =   -1130.00597395 Ry
     Harris-Foulkes estimate   =   -1130.00523981 Ry
     estimated scf accuracy    <       0.00616227 Ry

     iteration #  8     ecut=    66.00 Ry     beta= 0.10
     Davidson diagonalization with overlap
     ethr =  3.83E-06,  avg # of iterations =  2.3

     total cpu time spent up to now is       11.8 secs

     total energy              =   -1129.99986205 Ry
     Harris-Foulkes estimate   =   -1130.00601775 Ry
     estimated scf accuracy    <       0.00755093 Ry

     iteration #  9     ecut=    66.00 Ry     beta= 0.10
     Davidson diagonalization with overlap
     ethr =  3.83E-06,  avg # of iterations =  1.0

     total cpu time spent up to now is       12.6 secs

     total energy              =   -1129.99900680 Ry
     Harris-Foulkes estimate   =   -1130.00009595 Ry
     estimated scf accuracy    <       0.00210303 Ry

     iteration # 10     ecut=    66.00 Ry     beta= 0.10
     Davidson diagonalization with overlap
     ethr =  2.19E-06,  avg # of iterations =  1.0

     total cpu time spent up to now is       13.3 secs

     total energy              =   -1129.99589788 Ry
     Harris-Foulkes estimate   =   -1129.99903909 Ry
     estimated scf accuracy    <       0.00220069 Ry

     iteration # 11     ecut=    66.00 Ry     beta= 0.10
     Davidson diagonalization with overlap
     ethr =  2.19E-06,  avg # of iterations =  1.2

     total cpu time spent up to now is       14.0 secs

     total energy              =   -1129.99601186 Ry
     Harris-Foulkes estimate   =   -1129.99620194 Ry
     estimated scf accuracy    <       0.00029124 Ry

     iteration # 12     ecut=    66.00 Ry     beta= 0.10
     Davidson diagonalization with overlap
     ethr =  3.03E-07,  avg # of iterations =  6.6

     total cpu time spent up to now is       16.1 secs

     total energy              =   -1129.99607025 Ry
     Harris-Foulkes estimate   =   -1129.99611985 Ry
     estimated scf accuracy    <       0.00042047 Ry

     iteration # 13     ecut=    66.00 Ry     beta= 0.10
     Davidson diagonalization with overlap
     ethr =  3.03E-07,  avg # of iterations =  1.0

     total cpu time spent up to now is       16.8 secs

     total energy              =   -1129.99605678 Ry
     Harris-Foulkes estimate   =   -1129.99611847 Ry
     estimated scf accuracy    <       0.00170072 Ry

     iteration # 14     ecut=    66.00 Ry     beta= 0.10
     Davidson diagonalization with overlap
     ethr =  3.03E-07,  avg # of iterations =  1.0

     total cpu time spent up to now is       17.5 secs

     total energy              =   -1129.99583099 Ry
     Harris-Foulkes estimate   =   -1129.99606392 Ry
     estimated scf accuracy    <       0.00112963 Ry

     iteration # 15     ecut=    66.00 Ry     beta= 0.10
     Davidson diagonalization with overlap
     ethr =  3.03E-07,  avg # of iterations =  2.0

     total cpu time spent up to now is       18.3 secs

     total energy              =   -1129.99577735 Ry
     Harris-Foulkes estimate   =   -1129.99585525 Ry
     estimated scf accuracy    <       0.00167269 Ry

     iteration # 16     ecut=    66.00 Ry     beta= 0.10
     Davidson diagonalization with overlap
     ethr =  3.03E-07,  avg # of iterations =  1.0

     total cpu time spent up to now is       19.0 secs

     total energy              =   -1129.99562805 Ry
     Harris-Foulkes estimate   =   -1129.99579203 Ry
     estimated scf accuracy    <       0.00100007 Ry

     iteration # 17     ecut=    66.00 Ry     beta= 0.10
     Davidson diagonalization with overlap
     ethr =  3.03E-07,  avg # of iterations =  1.0

     total cpu time spent up to now is       19.7 secs

     total energy              =   -1129.99573286 Ry
     Harris-Foulkes estimate   =   -1129.99571421 Ry
     estimated scf accuracy    <       0.00002084 Ry

     iteration # 18     ecut=    66.00 Ry     beta= 0.10
     Davidson diagonalization with overlap
     ethr =  2.17E-08,  avg # of iterations =  4.1

     total cpu time spent up to now is       21.1 secs

     total energy              =   -1129.99573450 Ry
     Harris-Foulkes estimate   =   -1129.99574023 Ry
     estimated scf accuracy    <       0.00001979 Ry

     iteration # 19     ecut=    66.00 Ry     beta= 0.10
     Davidson diagonalization with overlap
     ethr =  2.06E-08,  avg # of iterations =  1.0

     total cpu time spent up to now is       21.8 secs

     total energy              =   -1129.99572147 Ry
     Harris-Foulkes estimate   =   -1129.99573553 Ry
     estimated scf accuracy    <       0.00000303 Ry

     iteration # 20     ecut=    66.00 Ry     beta= 0.10
     Davidson diagonalization with overlap
     ethr =  3.16E-09,  avg # of iterations =  3.4

     total cpu time spent up to now is       22.9 secs

     End of self-consistent calculation

          k = 0.1667 0.1667 0.1667 (  4788 PWs)   bands (ev):

    30.0768  34.7200  34.7305  34.7391  37.8729  37.8800  37.8860  38.6092
    38.6190  38.6272  41.0695  41.0734  41.0770  41.4027  41.4076  41.4105
    41.4163  41.4235  41.4258  41.6464  43.6278  43.6320  43.6358  44.1628
    44.1665  44.1727  44.1764  44.1827  44.1886  44.3409  44.3528  44.3639
    46.8466  46.8588  46.8709  49.3940  52.2206  52.2230  52.2242  52.2870
    52.2922  52.2961  52.3873  52.3895  52.3921  52.3933  52.3965  52.3995
    53.9189  53.9261  53.9296  53.9341  53.9388  53.9457  53.9479  53.9536
    53.9555  53.9595

          k = 0.1667 0.1667-0.5000 (  4798 PWs)   bands (ev):

    31.8086  31.8187  36.1506  36.1567  36.1634  36.1659  39.2180  39.2221
    39.2267  39.2295  39.6764  39.6848  40.1783  40.1908  42.4733  42.4814
    42.4835  42.4884  42.5244  42.5261  42.5276  42.5314  43.5374  43.5398
    43.5491  43.5517  44.6266  44.6281  44.6340  44.6375  44.7608  44.7632
    47.9707  47.9890  50.0560  50.0688  50.0787  50.0859  51.3885  51.3966
    51.4028  51.4121  52.2952  52.2979  52.3004  52.3038  52.3298  52.3426
    52.3503  52.3620  52.6527  52.6661  53.9153  53.9411  54.3173  54.3183
    54.3189  54.3208

          k = 0.1667-0.5000-0.5000 (  4724 PWs)   bands (ev):

    33.4072  33.4131  33.4220  33.4265  37.4105  37.4159  37.4239  37.4280
    40.4184  40.4224  40.4285  40.4316  41.5615  41.5703  41.5815  41.5829
    41.5858  41.5882  41.5949  41.6022  43.7762  43.7777  43.7806  43.7827
    44.6505  44.6558  44.6656  44.6664  44.6670  44.6704  44.6741  44.6800
    49.0458  49.0538  49.0602  49.0683  49.0734  49.0773  49.0824  49.0919
    51.4764  51.4801  51.4874  51.4921  52.8316  52.8355  52.8434  52.8493
    53.2491  53.2532  53.2607  53.2658  53.2755  53.2803  53.2883  53.2939
    54.7046  54.7058

          k =-0.5000-0.5000-0.5000 (  4776 PWs)   bands (ev):

    34.8479  34.8586  34.8598  34.8676  34.8711  34.8731  34.8845  34.8871
    42.8562  42.8600  42.8649  42.8712  42.8765  42.8784  42.8796  42.8821
    42.8832  42.8845  42.8866  42.8877  42.8930  42.8973  42.8983  42.9024
    42.9029  42.9068  42.9072  42.9146  42.9165  42.9191  42.9221  42.9266
    50.9967  51.0086  51.0137  51.0185  51.0210  51.0261  51.0306  51.0352
    51.0356  51.0382  51.0400  51.0425  51.0462  51.0477  51.0511  51.0577
    51.0590  51.0665  51.0668  51.0732  51.0768  51.0817  51.0883  51.0900
    58.6634  58.6676

          k =-0.1667-0.1667 0.1667 (  4788 PWs)   bands (ev):

    30.0768  34.7218  34.7306  34.7373  37.8741  37.8802  37.8847  38.6107
    38.6191  38.6254  41.0710  41.0733  41.0756  41.3969  41.4069  41.4112
    41.4122  41.4257  41.4339  41.6461  43.6283  43.6322  43.6351  44.1630
    44.1680  44.1736  44.1763  44.1819  44.1874  44.3455  44.3523  44.3592
    46.8514  46.8588  46.8663  49.3940  52.2215  52.2226  52.2239  52.2887
    52.2913  52.2945  52.3886  52.3900  52.3910  52.3948  52.3962  52.3978
    53.9167  53.9220  53.9317  53.9401  53.9428  53.9447  53.9488  53.9515
    53.9552  53.9631

          k =-0.1667 0.1667-0.1667 (  4788 PWs)   bands (ev):

    30.0768  34.7208  34.7298  34.7390  37.8735  37.8797  37.8859  38.6097
    38.6183  38.6271  41.0692  41.0734  41.0774  41.3953  41.4046  41.4144
    41.4182  41.4246  41.4299  41.6458  43.6281  43.6317  43.6357  44.1635
    44.1684  44.1722  44.1773  44.1820  44.1865  44.3401  44.3526  44.3646
    46.8457  46.8588  46.8720  49.3940  52.2210  52.2222  52.2243  52.2875
    52.2928  52.2959  52.3874  52.3904  52.3928  52.3938  52.3955  52.3973
    53.9168  53.9257  53.9318  53.9373  53.9400  53.9439  53.9477  53.9499
    53.9561  53.9602

          k = 0.1667-0.1667-0.1667 (  4788 PWs)   bands (ev):

    30.0768  34.7194  34.7323  34.7379  37.8723  37.8814  37.8851  38.6088
    38.6207  38.6260  41.0687  41.0733  41.0778  41.3950  41.4069  41.4128
    41.4174  41.4237  41.4307  41.6465  43.6271  43.6330  43.6351  44.1643
    44.1669  44.1707  44.1769  44.1822  44.1887  44.3391  44.3526  44.3661
    46.8442  46.8587  46.8735  49.3939  52.2209  52.2225  52.2239  52.2867
    52.2912  52.2962  52.3870  52.3892  52.3913  52.3961  52.3967  52.3994
    53.9160  53.9256  53.9304  53.9352  53.9404  53.9431  53.9516  53.9537
    53.9560  53.9603

          k =-0.1667 0.1667 0.5000 (  4798 PWs)   bands (ev):

    31.8086  31.8187  36.1490  36.1586  36.1607  36.1683  39.2166  39.2234
    39.2251  39.2310  39.6764  39.6849  40.1783  40.1907  42.4703  42.4755
    42.4867  42.4939  42.5222  42.5258  42.5291  42.5325  43.5381  43.5392
    43.5497  43.5510  44.6258  44.6290  44.6336  44.6378  44.7608  44.7631
    47.9707  47.9891  50.0530  50.0672  50.0769  50.0924  51.3917  51.3949
    51.4042  51.4088  52.2941  52.2989  52.2996  52.3056  52.3354  52.3411
    52.3516  52.3556  52.6527  52.6664  53.9151  53.9410  54.3162  54.3173
    54.3204  54.3214

          k =-0.5000-0.1667 0.1667 (  4798 PWs)   bands (ev):

    31.8081  31.8192  36.1497  36.1557  36.1603  36.1708  39.2173  39.2212
    39.2253  39.2327  39.6760  39.6847  40.1778  40.1915  42.4690  42.4835
    42.4861  42.4873  42.5242  42.5252  42.5272  42.5333  43.5379  43.5385
    43.5502  43.5518  44.6241  44.6294  44.6347  44.6375  44.7609  44.7634
    47.9697  47.9900  50.0503  50.0735  50.0786  50.0868  51.3895  51.3948
    51.4062  51.4095  52.2932  52.2993  52.3012  52.3037  52.3336  52.3393
    52.3520  52.3594  52.6513  52.6680  53.9139  53.9427  54.3165  54.3172
    54.3192  54.3222

          k = 0.5000-0.1667-0.1667 (  4798 PWs)   bands (ev):

    31.8081  31.8192  36.1487  36.1567  36.1592  36.1719  39.2158  39.2215
    39.2241  39.2343  39.6765  39.6851  40.1778  40.1914  42.4714  42.4768
    42.4853  42.4915  42.5233  42.5262  42.5294  42.5318  43.5362  43.5395
    43.5485  43.5542  44.6240  44.6300  44.6342  44.6376  44.7610  44.7632
    47.9697  47.9900  50.0536  50.0678  50.0761  50.0922  51.3866  51.3961
    51.4021  51.4150  52.2941  52.2987  52.3002  52.3058  52.3219  52.3444
    52.3502  52.3662  52.6513  52.6681  53.9139  53.9426  54.3162  54.3177
    54.3201  54.3209

          k =-0.1667-0.5000 0.1667 (  4798 PWs)   bands (ev):

    31.8122  31.8151  36.1483  36.1558  36.1650  36.1675  39.2150  39.2220
    39.2281  39.2311  39.6794  39.6817  40.1826  40.1866  42.4797  42.4805
    42.4824  42.4832  42.5265  42.5269  42.5280  42.5287  43.5391  43.5445
    43.5459  43.5487  44.6281  44.6285  44.6324  44.6370  44.7618  44.7622
    47.9770  47.9826  50.0685  50.0701  50.0749  50.0763  51.3905  51.3984
    51.4028  51.4080  52.2978  52.2985  52.3004  52.3009  52.3306  52.3426
    52.3485  52.3624  52.6566  52.6623  53.9242  53.9326  54.3181  54.3184
    54.3190  54.3196

          k =-0.1667 0.5000-0.1667 (  4798 PWs)   bands (ev):

    31.8122  31.8151  36.1493  36.1540  36.1656  36.1678  39.2170  39.2205
    39.2288  39.2302  39.6792  39.6815  40.1826  40.1865  42.4730  42.4819
    42.4829  42.4887  42.5242  42.5266  42.5275  42.5314  43.5412  43.5439
    43.5455  43.5476  44.6272  44.6292  44.6331  44.6366  44.7617  44.7623
    47.9771  47.9826  50.0596  50.0744  50.0751  50.0802  51.3959  51.3988
    51.4000  51.4048  52.2957  52.3000  52.3008  52.3017  52.3385  52.3448
    52.3490  52.3522  52.6566  52.6622  53.9242  53.9325  54.3167  54.3181
    54.3191  54.3211

          k =-0.5000 0.1667 0.5000 (  4724 PWs)   bands (ev):

    33.4036  33.4127  33.4208  33.4318  37.4072  37.4154  37.4228  37.4328
    40.4157  40.4221  40.4275  40.4354  41.5663  41.5731  41.5753  41.5810
    41.5838  41.5918  41.5942  41.6023  43.7743  43.7785  43.7803  43.7839
    44.6539  44.6583  44.6597  44.6643  44.6670  44.6721  44.6753  44.6793
    49.0393  49.0536  49.0637  49.0669  49.0690  49.0808  49.0891  49.0907
    51.4717  51.4827  51.4863  51.4956  52.8251  52.8379  52.8428  52.8532
    53.2506  53.2557  53.2611  53.2650  53.2730  53.2783  53.2869  53.2967
    54.7016  54.7078

          k =-0.5000 0.5000 0.1667 (  4724 PWs)   bands (ev):

    33.4104  33.4114  33.4209  33.4260  37.4133  37.4143  37.4230  37.4277
    40.4204  40.4211  40.4277  40.4313  41.5650  41.5680  41.5749  41.5826
    41.5852  41.5948  41.5977  41.5997  43.7761  43.7778  43.7811  43.7818
    44.6533  44.6541  44.6608  44.6661  44.6675  44.6740  44.6754  44.6786
    49.0492  49.0546  49.0633  49.0666  49.0682  49.0761  49.0839  49.0913
    51.4762  51.4802  51.4888  51.4910  52.8302  52.8355  52.8455  52.8481
    53.2459  53.2569  53.2631  53.2651  53.2720  53.2813  53.2851  53.2973
    54.7044  54.7079

     the Fermi energy is    52.4018 ev

!    total energy              =   -1129.99571649 Ry
     Harris-Foulkes estimate   =   -1129.99572200 Ry
     estimated scf accuracy    <       0.00000071 Ry

     total all-electron energy =    -15406.564738 Ry

     The total energy is the sum of the following terms:

     one-electron contribution =     469.33737662 Ry
     hartree contribution      =       1.72803887 Ry
     xc contribution           =    -138.29578756 Ry
     ewald contribution        =    -326.84024986 Ry
     one-center paw contrib.   =   -1135.92502464 Ry
     smearing contrib. (-TS)   =      -0.00006992 Ry

     convergence has been achieved in  20 iterations

     Forces acting on atoms (cartesian axes, Ry/au):

     atom    1 type  1   force =    -0.00222539   -0.00827356    0.00164728
     atom    2 type  1   force =    -0.00347307   -0.00648192    0.01253252
     atom    3 type  1   force =     0.01189745    0.00313561   -0.01854946
     atom    4 type  1   force =    -0.00806911    0.00936346   -0.02991629
     atom    5 type  1   force =    -0.01688442   -0.00935462    0.01544659
     atom    6 type  1   force =    -0.01321708    0.00489490   -0.00646820
     atom    7 type  1   force =    -0.01813472   -0.03385505    0.00992065
     atom    8 type  1   force =    -0.00768760    0.01327155    0.00231049
     atom    9 type  1   force =     0.02607855    0.00821593   -0.00359112
     atom   10 type  1   force =    -0.00486898    0.01557900   -0.02217921
     atom   11 type  1   force =    -0.00653403   -0.02160592   -0.01005225
     atom   12 type  1   force =    -0.01858815   -0.01127050   -0.01074762
     atom   13 type  1   force =    -0.00203627   -0.01939348    0.00840044
     atom   14 type  1   force =    -0.01341783    0.02478093    0.01532733
     atom   15 type  1   force =    -0.01482584    0.01741490    0.01445903
     atom   16 type  1   force =     0.02159282    0.00832073    0.01499372
     atom   17 type  1   force =    -0.01658554   -0.00909786   -0.00235043
     atom   18 type  1   force =     0.00832790   -0.00194237    0.01276619
     atom   19 type  1   force =     0.01980381    0.01596763   -0.00423575
     atom   20 type  1   force =     0.00892254    0.02360043   -0.01133141
     atom   21 type  1   force =     0.00700972   -0.01931374    0.01059875
     atom   22 type  1   force =     0.00094501    0.02326814    0.01356895
     atom   23 type  1   force =     0.01539282   -0.01103136   -0.01121588
     atom   24 type  1   force =     0.01509674    0.00306406    0.00650500
     atom   25 type  1   force =    -0.01864177    0.00325259    0.00166410
     atom   26 type  1   force =     0.00920265   -0.00897724    0.00811904
     atom   27 type  1   force =    -0.01154529   -0.01161402    0.00309754
     atom   28 type  1   force =     0.00840034   -0.00158621    0.00961871
     atom   29 type  1   force =     0.03443467   -0.01983280    0.00663238
     atom   30 type  1   force =    -0.00064218    0.00722151   -0.00500936
     atom   31 type  1   force =    -0.01156112   -0.00404726   -0.01638905
     atom   32 type  1   force =     0.00183335    0.01632655   -0.01557269

     Total force =     0.133820     Total SCF correction =     0.000527


     Computing stress (Cartesian axis) and pressure

          total   stress  (Ry/bohr**3)                   (kbar)     P=59719.69
   0.40593362   0.00000072   0.00001903      59714.89      0.11      2.80
   0.00000072   0.40597850  -0.00000868          0.11  59721.49     -1.28
   0.00001903  -0.00000868   0.40598666          2.80     -1.28  59722.69


     Writing output data file fe_scf_fcc_2.save/
 
     init_run     :      0.70s CPU      0.76s WALL (       1 calls)
     electrons    :     20.74s CPU     21.61s WALL (       1 calls)
     forces       :      0.13s CPU      0.15s WALL (       1 calls)
     stress       :      0.23s CPU      0.23s WALL (       1 calls)

     Called by init_run:
     wfcinit      :      0.60s CPU      0.63s WALL (       1 calls)
     potinit      :      0.07s CPU      0.07s WALL (       1 calls)
     hinit0       :      0.02s CPU      0.04s WALL (       1 calls)

     Called by electrons:
     c_bands      :     17.57s CPU     18.26s WALL (      20 calls)
     sum_band     :      1.75s CPU      1.90s WALL (      20 calls)
     v_of_rho     :      0.05s CPU      0.05s WALL (      21 calls)
     newd         :      0.03s CPU      0.03s WALL (      21 calls)
     PAW_pot      :      1.36s CPU      1.38s WALL (      21 calls)
     mix_rho      :      0.02s CPU      0.03s WALL (      20 calls)

     Called by c_bands:
     init_us_2    :      0.17s CPU      0.18s WALL (     602 calls)
     cegterg      :     16.88s CPU     17.56s WALL (     280 calls)

     Called by sum_band:
     sum_band:bec :      0.03s CPU      0.03s WALL (     280 calls)
     addusdens    :      0.02s CPU      0.02s WALL (      20 calls)

     Called by *egterg:
     h_psi        :      8.06s CPU      8.59s WALL (    1102 calls)
     s_psi        :      0.71s CPU      0.73s WALL (    1102 calls)
     g_psi        :      0.04s CPU      0.04s WALL (     808 calls)
     cdiaghg      :      6.71s CPU      6.77s WALL (    1088 calls)

     Called by h_psi:
     h_psi:pot    :      8.02s CPU      8.55s WALL (    1102 calls)
     h_psi:calbec :      1.10s CPU      1.27s WALL (    1102 calls)
     vloc_psi     :      6.15s CPU      6.50s WALL (    1102 calls)
     add_vuspsi   :      0.76s CPU      0.78s WALL (    1102 calls)

     General routines
     calbec       :      1.53s CPU      1.80s WALL (    1452 calls)
     fft          :      0.05s CPU      0.07s WALL (     257 calls)
     ffts         :      0.00s CPU      0.00s WALL (      20 calls)
     fftw         :      6.93s CPU      7.31s WALL (   98546 calls)
 
     Parallel routines
     fft_scatt_xy :      0.52s CPU      0.55s WALL (   98823 calls)
     fft_scatt_yz :      4.31s CPU      4.57s WALL (   98823 calls)
 
     PWSCF        :    22.42s CPU        23.65s WALL

 
   This run was terminated on:  19:11:26  22Oct2019            

=------------------------------------------------------------------------------=
   JOB DONE.
=------------------------------------------------------------------------------=
