--------------------------------------------------------------------------
WARNING: There was an error initializing an OpenFabrics device.

  Local host:   bear-pg0211u11a
  Local device: mlx5_0
--------------------------------------------------------------------------

     Program PWSCF v.6.3 starts on 24Oct2019 at  1:59: 0 

     This program is part of the open-source Quantum ESPRESSO suite
     for quantum simulation of materials; please cite
         "P. Giannozzi et al., J. Phys.:Condens. Matter 21 395502 (2009);
         "P. Giannozzi et al., J. Phys.:Condens. Matter 29 465901 (2017);
          URL http://www.quantum-espresso.org", 
     in publications or presentations arising from this work. More details at
     http://www.quantum-espresso.org/quote

     Parallel version (MPI & OpenMP), running on      20 processor cores
     Number of MPI processes:                20
     Threads/MPI process:                     1

     MPI processes distributed on     1 nodes
     R & G space division:  proc/nbgrp/npool/nimage =      20
     Reading input from /rds/homes/b/bxp912/jobs/20191024_test1/wd/runpwscf/file_10259.in
Warning: card &IONS ignored
Warning: card ION_DYNAMICS = 'BFGS', ignored
Warning: card / ignored
Warning: card &CELL ignored
Warning: card CELL_DYNAMICS = 'BFGS', ignored
Warning: card CELL_FACTOR = 2.0, ignored
Warning: card PRESS = 0.0, ignored
Warning: card / ignored

     Current dimensions of program PWSCF are:
     Max number of different atomic species (ntypx) = 10
     Max number of k-points (npk) =  40000
     Max angular momentum in pseudopotentials (lmaxx) =  3
     Message from routine read_upf::
     Pseudo file /rds/homes/b/bxp912/pp/Al.pbe-nl-kjpaw_psl.1.0.0.UPF has been successfully fixed on the fly.
To avoid this message in the future you can permanently fix 
 your pseudo files following instructions given in: 
https://gitlab.com/QEF/q-e/blob/master/upftools/how_to_fix_upf.md
               file Al.pbe-nl-kjpaw_psl.1.0.0.UPF: wavefunction(s)  3S 3P renormalized

     Subspace diagonalization in iterative solution of the eigenvalue problem:
     a serial algorithm will be used

 
     Parallelization info
     --------------------
     sticks:   dense  smooth     PW     G-vecs:    dense   smooth      PW
     Min          52      52     20                 1262     1262     300
     Max          53      53     21                 1265     1265     303
     Sum        1041    1041    401                25269    25269    6031
 


     bravais-lattice index     =            0
     lattice parameter (alat)  =       8.0800  a.u.
     unit-cell volume          =     527.5141 (a.u.)^3
     number of atoms/cell      =           32
     number of atomic types    =            1
     number of electrons       =        96.00
     number of Kohn-Sham states=           58
     kinetic-energy cutoff     =      66.0000  Ry
     charge density cutoff     =     200.0000  Ry
     convergence threshold     =      1.0E-06
     mixing beta               =       0.1000
     number of iterations used =           10  TF        mixing
     Exchange-correlation      = SLA PW PBX PBC ( 1  4  3  4 0 0)

     celldm(1)=   8.080000  celldm(2)=   0.000000  celldm(3)=   0.000000
     celldm(4)=   0.000000  celldm(5)=   0.000000  celldm(6)=   0.000000

     crystal axes: (cart. coord. in units of alat)
               a(1) = (   1.000000   0.000000   0.000000 )  
               a(2) = (   0.000000   1.000000   0.000000 )  
               a(3) = (   0.000000   0.000000   1.000000 )  

     reciprocal axes: (cart. coord. in units 2 pi/alat)
               b(1) = (  1.000000  0.000000  0.000000 )  
               b(2) = (  0.000000  1.000000  0.000000 )  
               b(3) = (  0.000000  0.000000  1.000000 )  


     PseudoPot. # 1 for Al read from file:
     /rds/homes/b/bxp912/pp/Al.pbe-nl-kjpaw_psl.1.0.0.UPF
     MD5 check sum: 339dbea23cf3ab9a065ad45c0f9085d7
     Pseudo is Projector augmented-wave + core cor, Zval =  3.0
     Generated using "atomic" code by A. Dal Corso v.5.1
     Shape of augmentation charge: PSQ
     Using radial grid of 1135 points,  4 beta functions with: 
                l(1) =   0
                l(2) =   0
                l(3) =   1
                l(4) =   1
     Q(r) pseudized with 0 coefficients 


     atomic species   valence    mass     pseudopotential
        Al             3.00    26.98200     Al( 1.00)

     No symmetry found



   Cartesian axes

     site n.     atom                  positions (alat units)
         1           Al  tau(   1) = (  -0.0000618   0.0000180   0.0001286  )
         2           Al  tau(   2) = (   0.2501504   0.2496409   0.0001329  )
         3           Al  tau(   3) = (   0.2498245   0.0000576   0.2505585  )
         4           Al  tau(   4) = (  -0.0000378   0.2504134   0.2503472  )
         5           Al  tau(   5) = (   0.0004835   0.0004765   0.4997751  )
         6           Al  tau(   6) = (   0.2502257   0.2496836   0.5000068  )
         7           Al  tau(   7) = (   0.2500525   0.0002908   0.7497884  )
         8           Al  tau(   8) = (   0.0001038   0.2502148   0.7503971  )
         9           Al  tau(   9) = (   0.0004488   0.5002037  -0.0000292  )
        10           Al  tau(  10) = (   0.2502638   0.7503330   0.0007661  )
        11           Al  tau(  11) = (   0.2503574   0.5002057   0.2504745  )
        12           Al  tau(  12) = (   0.0000725   0.7500861   0.2500479  )
        13           Al  tau(  13) = (   0.0002082   0.5002952   0.5001871  )
        14           Al  tau(  14) = (   0.2499320   0.7501195   0.4997555  )
        15           Al  tau(  15) = (   0.2506361   0.4996019   0.7494255  )
        16           Al  tau(  16) = (  -0.0006199   0.7494434   0.7499870  )
        17           Al  tau(  17) = (   0.5003850  -0.0001898  -0.0000732  )
        18           Al  tau(  18) = (   0.7498343   0.2501778  -0.0004407  )
        19           Al  tau(  19) = (   0.7493109  -0.0001812   0.2501458  )
        20           Al  tau(  20) = (   0.4999530   0.2499270   0.2496819  )
        21           Al  tau(  21) = (   0.4998509   0.0005536   0.4999482  )
        22           Al  tau(  22) = (   0.7501292   0.2494251   0.4999098  )
        23           Al  tau(  23) = (   0.7500676  -0.0001298   0.7500485  )
        24           Al  tau(  24) = (   0.5000215   0.2497853   0.7499902  )
        25           Al  tau(  25) = (   0.4997214   0.5002185  -0.0004144  )
        26           Al  tau(  26) = (   0.7495697   0.7501849   0.0005172  )
        27           Al  tau(  27) = (   0.7501903   0.4996254   0.2498983  )
        28           Al  tau(  28) = (   0.5001659   0.7496046   0.2503955  )
        29           Al  tau(  29) = (   0.4993878   0.5001941   0.5000764  )
        30           Al  tau(  30) = (   0.7503133   0.7499759   0.4997253  )
        31           Al  tau(  31) = (   0.7499001   0.5000179   0.7502634  )
        32           Al  tau(  32) = (   0.5000268   0.7499029   0.7498445  )

     number of k points=   365  Marzari-Vanderbilt smearing, width (Ry)=  0.0020

     Number of k-points >= 100: set verbosity='high' to print them.

     Dense  grid:    25269 G-vectors     FFT dimensions: (  40,  40,  40)

     Estimated max dynamical RAM per process >      84.48 MB

     Estimated total dynamical RAM >       1.65 GB

     Initial potential from superposition of free atoms

     starting charge   95.92671, renormalised to   96.00000
     Starting wfcs are  128 randomized atomic wfcs
     Checking if some PAW data can be deallocated... 

     total cpu time spent up to now is       13.4 secs

     Self-consistent Calculation

     iteration #  1     ecut=    66.00 Ry     beta= 0.10
     Davidson diagonalization with overlap
     ethr =  1.00E-02,  avg # of iterations =  5.2

     total cpu time spent up to now is       51.8 secs

     total energy              =   -1133.16893899 Ry
     Harris-Foulkes estimate   =   -1134.40453184 Ry
     estimated scf accuracy    <       1.41754887 Ry

     iteration #  2     ecut=    66.00 Ry     beta= 0.10
     Davidson diagonalization with overlap
     ethr =  1.48E-03,  avg # of iterations =  3.2

     total cpu time spent up to now is       72.1 secs

     total energy              =   -1129.58839035 Ry
     Harris-Foulkes estimate   =   -1133.27692025 Ry
     estimated scf accuracy    <       1.22982397 Ry

     iteration #  3     ecut=    66.00 Ry     beta= 0.10
     Davidson diagonalization with overlap
     ethr =  1.28E-03,  avg # of iterations =  4.1

     total cpu time spent up to now is      103.4 secs

     total energy              =   -1130.16010811 Ry
     Harris-Foulkes estimate   =   -1130.58136656 Ry
     estimated scf accuracy    <       0.20981650 Ry

     iteration #  4     ecut=    66.00 Ry     beta= 0.10
     Davidson diagonalization with overlap
     ethr =  2.19E-04,  avg # of iterations =  2.8

     total cpu time spent up to now is      122.7 secs

     total energy              =   -1130.04858119 Ry
     Harris-Foulkes estimate   =   -1130.17594717 Ry
     estimated scf accuracy    <       0.13491305 Ry

     iteration #  5     ecut=    66.00 Ry     beta= 0.10
     Davidson diagonalization with overlap
     ethr =  1.41E-04,  avg # of iterations =  3.9

     total cpu time spent up to now is      152.1 secs

     total energy              =   -1130.02687175 Ry
     Harris-Foulkes estimate   =   -1130.10210637 Ry
     estimated scf accuracy    <       0.01963211 Ry

     iteration #  6     ecut=    66.00 Ry     beta= 0.10
     Davidson diagonalization with overlap
     c_bands:  1 eigenvalues not converged
     c_bands:  1 eigenvalues not converged
     c_bands:  1 eigenvalues not converged
     c_bands:  1 eigenvalues not converged
     c_bands:  1 eigenvalues not converged
     c_bands:  1 eigenvalues not converged
     c_bands:  2 eigenvalues not converged
     c_bands:  2 eigenvalues not converged
     ethr =  2.05E-05,  avg # of iterations =  4.3

     total cpu time spent up to now is      177.6 secs

     total energy              =   -1130.04069252 Ry
     Harris-Foulkes estimate   =   -1130.04326625 Ry
     estimated scf accuracy    <       0.00716664 Ry

     iteration #  7     ecut=    66.00 Ry     beta= 0.10
     Davidson diagonalization with overlap
     c_bands:  2 eigenvalues not converged
     c_bands:  1 eigenvalues not converged
     ethr =  7.47E-06,  avg # of iterations =  4.4

     total cpu time spent up to now is      201.7 secs

     total energy              =   -1130.03458943 Ry
     Harris-Foulkes estimate   =   -1130.04813104 Ry
     estimated scf accuracy    <       0.00503986 Ry

     iteration #  8     ecut=    66.00 Ry     beta= 0.10
     Davidson diagonalization with overlap
     c_bands:  1 eigenvalues not converged
     c_bands:  1 eigenvalues not converged
     c_bands:  1 eigenvalues not converged
     c_bands:  1 eigenvalues not converged
     c_bands:  1 eigenvalues not converged
     c_bands:  1 eigenvalues not converged
     c_bands:  1 eigenvalues not converged
     c_bands:  1 eigenvalues not converged
     c_bands:  1 eigenvalues not converged
     ethr =  5.25E-06,  avg # of iterations =  4.4

     total cpu time spent up to now is      227.2 secs

     total energy              =   -1130.03839025 Ry
     Harris-Foulkes estimate   =   -1130.03805892 Ry
     estimated scf accuracy    <       0.00093631 Ry

     iteration #  9     ecut=    66.00 Ry     beta= 0.10
     Davidson diagonalization with overlap
     c_bands:  2 eigenvalues not converged
     c_bands:  1 eigenvalues not converged
     c_bands:  1 eigenvalues not converged
     c_bands:  1 eigenvalues not converged
     c_bands:  1 eigenvalues not converged
     c_bands:  1 eigenvalues not converged
     c_bands:  1 eigenvalues not converged
     c_bands:  1 eigenvalues not converged
     c_bands:  1 eigenvalues not converged
     c_bands:  1 eigenvalues not converged
     c_bands:  1 eigenvalues not converged
     c_bands:  1 eigenvalues not converged
     c_bands:  1 eigenvalues not converged
     ethr =  9.75E-07,  avg # of iterations =  7.7

     total cpu time spent up to now is      264.2 secs

     total energy              =   -1130.04721088 Ry
     Harris-Foulkes estimate   =   -1130.04718126 Ry
     estimated scf accuracy    <       0.00064223 Ry

     iteration # 10     ecut=    66.00 Ry     beta= 0.10
     Davidson diagonalization with overlap
     c_bands:  1 eigenvalues not converged
     c_bands:  1 eigenvalues not converged
     ethr =  6.69E-07,  avg # of iterations =  1.3

     total cpu time spent up to now is      279.1 secs

     total energy              =   -1130.04669509 Ry
     Harris-Foulkes estimate   =   -1130.04722266 Ry
     estimated scf accuracy    <       0.00054401 Ry

     iteration # 11     ecut=    66.00 Ry     beta= 0.10
     Davidson diagonalization with overlap
     c_bands:  1 eigenvalues not converged
     c_bands:  1 eigenvalues not converged
     ethr =  5.67E-07,  avg # of iterations =  1.1

     total cpu time spent up to now is      293.6 secs

     total energy              =   -1130.04778722 Ry
     Harris-Foulkes estimate   =   -1130.04670983 Ry
     estimated scf accuracy    <       0.00084764 Ry

     iteration # 12     ecut=    66.00 Ry     beta= 0.10
     Davidson diagonalization with overlap
     ethr =  5.67E-07,  avg # of iterations =  2.1

     total cpu time spent up to now is      311.3 secs

     total energy              =   -1130.04569438 Ry
     Harris-Foulkes estimate   =   -1130.04783709 Ry
     estimated scf accuracy    <       0.00042512 Ry

     iteration # 13     ecut=    66.00 Ry     beta= 0.10
     Davidson diagonalization with overlap
     c_bands:  1 eigenvalues not converged
     ethr =  4.43E-07,  avg # of iterations =  3.3

     total cpu time spent up to now is      335.5 secs

     total energy              =   -1130.04584924 Ry
     Harris-Foulkes estimate   =   -1130.04581079 Ry
     estimated scf accuracy    <       0.00049785 Ry

     iteration # 14     ecut=    66.00 Ry     beta= 0.10
     Davidson diagonalization with overlap
     ethr =  4.43E-07,  avg # of iterations =  1.0

     total cpu time spent up to now is      349.8 secs

     total energy              =   -1130.04577022 Ry
     Harris-Foulkes estimate   =   -1130.04585395 Ry
     estimated scf accuracy    <       0.00056706 Ry

     iteration # 15     ecut=    66.00 Ry     beta= 0.10
     Davidson diagonalization with overlap
     ethr =  4.43E-07,  avg # of iterations =  1.0

     total cpu time spent up to now is      366.9 secs

     total energy              =   -1130.04568516 Ry
     Harris-Foulkes estimate   =   -1130.04578002 Ry
     estimated scf accuracy    <       0.00021157 Ry

     iteration # 16     ecut=    66.00 Ry     beta= 0.10
     Davidson diagonalization with overlap
     ethr =  2.20E-07,  avg # of iterations =  1.3

     total cpu time spent up to now is      381.8 secs

     total energy              =   -1130.04569429 Ry
     Harris-Foulkes estimate   =   -1130.04569391 Ry
     estimated scf accuracy    <       0.00003773 Ry

     iteration # 17     ecut=    66.00 Ry     beta= 0.10
     Davidson diagonalization with overlap
     c_bands:  1 eigenvalues not converged
     c_bands:  1 eigenvalues not converged
     ethr =  3.93E-08,  avg # of iterations =  3.6

     total cpu time spent up to now is      402.8 secs

     total energy              =   -1130.04569946 Ry
     Harris-Foulkes estimate   =   -1130.04569834 Ry
     estimated scf accuracy    <       0.00009097 Ry

     iteration # 18     ecut=    66.00 Ry     beta= 0.10
     Davidson diagonalization with overlap
     ethr =  3.93E-08,  avg # of iterations =  1.1

     total cpu time spent up to now is      417.2 secs

     total energy              =   -1130.04568389 Ry
     Harris-Foulkes estimate   =   -1130.04570006 Ry
     estimated scf accuracy    <       0.00011371 Ry

     iteration # 19     ecut=    66.00 Ry     beta= 0.10
     Davidson diagonalization with overlap
     ethr =  3.93E-08,  avg # of iterations =  1.0

     total cpu time spent up to now is      431.5 secs

     total energy              =   -1130.04566887 Ry
     Harris-Foulkes estimate   =   -1130.04568500 Ry
     estimated scf accuracy    <       0.00006563 Ry

     iteration # 20     ecut=    66.00 Ry     beta= 0.10
     Davidson diagonalization with overlap
     c_bands:  1 eigenvalues not converged
     ethr =  3.93E-08,  avg # of iterations =  3.7

     total cpu time spent up to now is      453.8 secs

     End of self-consistent calculation

     Number of k-points >= 100: set verbosity='high' to print the bands.

     the Fermi energy is    52.7249 ev

!    total energy              =   -1130.04567376 Ry
     Harris-Foulkes estimate   =   -1130.04567507 Ry
     estimated scf accuracy    <       0.00000081 Ry

     total all-electron energy =    -15406.614696 Ry

     The total energy is the sum of the following terms:

     one-electron contribution =     469.08409506 Ry
     hartree contribution      =       1.74828813 Ry
     xc contribution           =    -138.27927563 Ry
     ewald contribution        =    -326.84024986 Ry
     one-center paw contrib.   =   -1135.75854998 Ry
     smearing contrib. (-TS)   =       0.00001851 Ry

     convergence has been achieved in  20 iterations

     Forces acting on atoms (cartesian axes, Ry/au):

     atom    1 type  1   force =    -0.00335565   -0.00423188    0.00146627
     atom    2 type  1   force =    -0.00439294   -0.00130554    0.01252603
     atom    3 type  1   force =     0.01293573    0.00179826   -0.02041071
     atom    4 type  1   force =    -0.00615800    0.00272637   -0.02377337
     atom    5 type  1   force =    -0.01544330   -0.01300619    0.01621088
     atom    6 type  1   force =    -0.01066333    0.01135496   -0.00635338
     atom    7 type  1   force =    -0.01464823   -0.03181282    0.01256208
     atom    8 type  1   force =    -0.00540040    0.00883540   -0.00453322
     atom    9 type  1   force =     0.01910872    0.00489025   -0.00058751
     atom   10 type  1   force =    -0.00621282    0.00918515   -0.02749805
     atom   11 type  1   force =    -0.00949842   -0.01876862   -0.01272571
     atom   12 type  1   force =    -0.01506749   -0.00527694   -0.00946377
     atom   13 type  1   force =    -0.00445367   -0.01797416    0.00572888
     atom   14 type  1   force =    -0.00958068    0.02011328    0.01902669
     atom   15 type  1   force =    -0.01813546    0.01541586    0.01789281
     atom   16 type  1   force =     0.02515847    0.01257252    0.01397079
     atom   17 type  1   force =    -0.01798336   -0.00467737   -0.00056802
     atom   18 type  1   force =     0.00994374   -0.00332658    0.01478421
     atom   19 type  1   force =     0.02044018    0.01319479   -0.00432551
     atom   20 type  1   force =     0.00590603    0.02026693   -0.00887128
     atom   21 type  1   force =     0.00518048   -0.02260709    0.00942167
     atom   22 type  1   force =    -0.00242248    0.02411824    0.01221941
     atom   23 type  1   force =     0.01273659   -0.00875905   -0.01204822
     atom   24 type  1   force =     0.01398190    0.00457624    0.00327948
     atom   25 type  1   force =    -0.01113652   -0.00103703    0.00634954
     atom   26 type  1   force =     0.01141515   -0.00893862    0.00317697
     atom   27 type  1   force =    -0.00896920   -0.00724909    0.00345683
     atom   28 type  1   force =     0.00453083    0.00136315    0.00571396
     atom   29 type  1   force =     0.03851148   -0.01905166    0.00179009
     atom   30 type  1   force =    -0.00506157    0.00702284   -0.00064406
     atom   31 type  1   force =    -0.01053850   -0.00533660   -0.01719736
     atom   32 type  1   force =    -0.00072728    0.01592499   -0.01057644

     Total force =     0.127642     Total SCF correction =     0.000929


     Computing stress (Cartesian axis) and pressure

          total   stress  (Ry/bohr**3)                   (kbar)     P=59528.87
   0.40466844   0.00000013  -0.00000049      59528.77      0.02     -0.07
   0.00000013   0.40466840   0.00000093          0.02  59528.77      0.14
  -0.00000049   0.00000093   0.40467049         -0.07      0.14  59529.07


     Writing output data file fe_scf_fcc_2.save/
 
     init_run     :     12.17s CPU     12.92s WALL (       1 calls)
     electrons    :    419.16s CPU    440.39s WALL (       1 calls)
     forces       :      2.38s CPU      2.67s WALL (       1 calls)
     stress       :      4.58s CPU      4.68s WALL (       1 calls)

     Called by init_run:
     wfcinit      :     12.04s CPU     12.75s WALL (       1 calls)
     potinit      :      0.07s CPU      0.07s WALL (       1 calls)
     hinit0       :      0.04s CPU      0.08s WALL (       1 calls)

     Called by electrons:
     c_bands      :    379.44s CPU    397.38s WALL (      20 calls)
     sum_band     :     38.51s CPU     41.70s WALL (      20 calls)
     v_of_rho     :      0.05s CPU      0.08s WALL (      21 calls)
     newd         :      0.04s CPU      0.05s WALL (      21 calls)
     PAW_pot      :      1.15s CPU      1.16s WALL (      21 calls)
     mix_rho      :      0.02s CPU      0.03s WALL (      20 calls)

     Called by c_bands:
     init_us_2    :      2.99s CPU      3.09s WALL (   15695 calls)
     cegterg      :    365.51s CPU    380.17s WALL (    7301 calls)

     Called by sum_band:
     sum_band:bec :      0.54s CPU      0.55s WALL (    7300 calls)
     addusdens    :      0.02s CPU      0.02s WALL (      20 calls)

     Called by *egterg:
     h_psi        :    177.81s CPU    189.61s WALL (   29656 calls)
     s_psi        :     11.15s CPU     11.32s WALL (   29656 calls)
     g_psi        :      0.57s CPU      0.58s WALL (   21990 calls)
     cdiaghg      :    152.20s CPU    152.91s WALL (   29291 calls)

     Called by h_psi:
     h_psi:pot    :    177.23s CPU    189.03s WALL (   29656 calls)
     h_psi:calbec :     17.74s CPU     21.79s WALL (   29656 calls)
     vloc_psi     :    147.55s CPU    154.97s WALL (   29656 calls)
     add_vuspsi   :     11.81s CPU     12.14s WALL (   29656 calls)

     General routines
     calbec       :     25.78s CPU     31.82s WALL (   38781 calls)
     fft          :      0.09s CPU      0.17s WALL (     257 calls)
     ffts         :      0.01s CPU      0.02s WALL (      20 calls)
     fftw         :    167.33s CPU    175.75s WALL ( 2530234 calls)
 
     Parallel routines
     fft_scatt_xy :     11.90s CPU     12.51s WALL ( 2530511 calls)
     fft_scatt_yz :    112.13s CPU    117.89s WALL ( 2530511 calls)
 
     PWSCF        :  7m22.26s CPU     7m49.66s WALL

 
   This run was terminated on:   2: 6:50  24Oct2019            

=------------------------------------------------------------------------------=
   JOB DONE.
=------------------------------------------------------------------------------=
