
     Program PWSCF v.6.3 starts on 23Oct2019 at 12: 3:30 

     This program is part of the open-source Quantum ESPRESSO suite
     for quantum simulation of materials; please cite
         "P. Giannozzi et al., J. Phys.:Condens. Matter 21 395502 (2009);
         "P. Giannozzi et al., J. Phys.:Condens. Matter 29 465901 (2017);
          URL http://www.quantum-espresso.org", 
     in publications or presentations arising from this work. More details at
     http://www.quantum-espresso.org/quote

     Parallel version (MPI & OpenMP), running on      20 processor cores
     Number of MPI processes:                20
     Threads/MPI process:                     1

     MPI processes distributed on     1 nodes
     R & G space division:  proc/nbgrp/npool/nimage =      20
     Reading input from /rds/homes/b/bxp912/jobs/20191022_test2/wd/runpwscf/file_10255.in
Warning: card &IONS ignored
Warning: card ION_DYNAMICS = 'BFGS', ignored
Warning: card / ignored
Warning: card &CELL ignored
Warning: card CELL_DYNAMICS = 'BFGS', ignored
Warning: card CELL_FACTOR = 2.0, ignored
Warning: card PRESS = 0.0, ignored
Warning: card / ignored

     Current dimensions of program PWSCF are:
     Max number of different atomic species (ntypx) = 10
     Max number of k-points (npk) =  40000
     Max angular momentum in pseudopotentials (lmaxx) =  3
     Message from routine read_upf::
     Pseudo file /rds/homes/b/bxp912/pp/Al.pbe-nl-kjpaw_psl.1.0.0.UPF has been successfully fixed on the fly.
To avoid this message in the future you can permanently fix 
 your pseudo files following instructions given in: 
https://gitlab.com/QEF/q-e/blob/master/upftools/how_to_fix_upf.md
               file Al.pbe-nl-kjpaw_psl.1.0.0.UPF: wavefunction(s)  3S 3P renormalized

     Subspace diagonalization in iterative solution of the eigenvalue problem:
     a serial algorithm will be used

 
     Parallelization info
     --------------------
     sticks:   dense  smooth     PW     G-vecs:    dense   smooth      PW
     Min          52      52     20                 1262     1262     300
     Max          53      53     21                 1265     1265     303
     Sum        1041    1041    401                25269    25269    6031
 


     bravais-lattice index     =            0
     lattice parameter (alat)  =       8.0800  a.u.
     unit-cell volume          =     527.5141 (a.u.)^3
     number of atoms/cell      =           32
     number of atomic types    =            1
     number of electrons       =        96.00
     number of Kohn-Sham states=           58
     kinetic-energy cutoff     =      66.0000  Ry
     charge density cutoff     =     200.0000  Ry
     convergence threshold     =      1.0E-06
     mixing beta               =       0.1000
     number of iterations used =           10  TF        mixing
     Exchange-correlation      = SLA PW PBX PBC ( 1  4  3  4 0 0)

     celldm(1)=   8.080000  celldm(2)=   0.000000  celldm(3)=   0.000000
     celldm(4)=   0.000000  celldm(5)=   0.000000  celldm(6)=   0.000000

     crystal axes: (cart. coord. in units of alat)
               a(1) = (   1.000000   0.000000   0.000000 )  
               a(2) = (   0.000000   1.000000   0.000000 )  
               a(3) = (   0.000000   0.000000   1.000000 )  

     reciprocal axes: (cart. coord. in units 2 pi/alat)
               b(1) = (  1.000000  0.000000  0.000000 )  
               b(2) = (  0.000000  1.000000  0.000000 )  
               b(3) = (  0.000000  0.000000  1.000000 )  


     PseudoPot. # 1 for Al read from file:
     /rds/homes/b/bxp912/pp/Al.pbe-nl-kjpaw_psl.1.0.0.UPF
     MD5 check sum: 339dbea23cf3ab9a065ad45c0f9085d7
     Pseudo is Projector augmented-wave + core cor, Zval =  3.0
     Generated using "atomic" code by A. Dal Corso v.5.1
     Shape of augmentation charge: PSQ
     Using radial grid of 1135 points,  4 beta functions with: 
                l(1) =   0
                l(2) =   0
                l(3) =   1
                l(4) =   1
     Q(r) pseudized with 0 coefficients 


     atomic species   valence    mass     pseudopotential
        Al             3.00    26.98200     Al( 1.00)

     No symmetry found



   Cartesian axes

     site n.     atom                  positions (alat units)
         1           Al  tau(   1) = (  -0.0000618   0.0000180   0.0001286  )
         2           Al  tau(   2) = (   0.2501504   0.2496409   0.0001329  )
         3           Al  tau(   3) = (   0.2498245   0.0000576   0.2505585  )
         4           Al  tau(   4) = (  -0.0000378   0.2504134   0.2503472  )
         5           Al  tau(   5) = (   0.0004835   0.0004765   0.4997751  )
         6           Al  tau(   6) = (   0.2502257   0.2496836   0.5000068  )
         7           Al  tau(   7) = (   0.2500525   0.0002908   0.7497884  )
         8           Al  tau(   8) = (   0.0001038   0.2502148   0.7503971  )
         9           Al  tau(   9) = (   0.0004488   0.5002037  -0.0000292  )
        10           Al  tau(  10) = (   0.2502638   0.7503330   0.0007661  )
        11           Al  tau(  11) = (   0.2503574   0.5002057   0.2504745  )
        12           Al  tau(  12) = (   0.0000725   0.7500861   0.2500479  )
        13           Al  tau(  13) = (   0.0002082   0.5002952   0.5001871  )
        14           Al  tau(  14) = (   0.2499320   0.7501195   0.4997555  )
        15           Al  tau(  15) = (   0.2506361   0.4996019   0.7494255  )
        16           Al  tau(  16) = (  -0.0006199   0.7494434   0.7499870  )
        17           Al  tau(  17) = (   0.5003850  -0.0001898  -0.0000732  )
        18           Al  tau(  18) = (   0.7498343   0.2501778  -0.0004407  )
        19           Al  tau(  19) = (   0.7493109  -0.0001812   0.2501458  )
        20           Al  tau(  20) = (   0.4999530   0.2499270   0.2496819  )
        21           Al  tau(  21) = (   0.4998509   0.0005536   0.4999482  )
        22           Al  tau(  22) = (   0.7501292   0.2494251   0.4999098  )
        23           Al  tau(  23) = (   0.7500676  -0.0001298   0.7500485  )
        24           Al  tau(  24) = (   0.5000215   0.2497853   0.7499902  )
        25           Al  tau(  25) = (   0.4997214   0.5002185  -0.0004144  )
        26           Al  tau(  26) = (   0.7495697   0.7501849   0.0005172  )
        27           Al  tau(  27) = (   0.7501903   0.4996254   0.2498983  )
        28           Al  tau(  28) = (   0.5001659   0.7496046   0.2503955  )
        29           Al  tau(  29) = (   0.4993878   0.5001941   0.5000764  )
        30           Al  tau(  30) = (   0.7503133   0.7499759   0.4997253  )
        31           Al  tau(  31) = (   0.7499001   0.5000179   0.7502634  )
        32           Al  tau(  32) = (   0.5000268   0.7499029   0.7498445  )

     number of k points=   172  Marzari-Vanderbilt smearing, width (Ry)=  0.0400

     Number of k-points >= 100: set verbosity='high' to print them.

     Dense  grid:    25269 G-vectors     FFT dimensions: (  40,  40,  40)

     Estimated max dynamical RAM per process >      43.83 MB

     Estimated total dynamical RAM >     876.53 MB

     Initial potential from superposition of free atoms

     starting charge   95.92671, renormalised to   96.00000
     Starting wfcs are  128 randomized atomic wfcs
     Checking if some PAW data can be deallocated... 

     total cpu time spent up to now is        7.2 secs

     Self-consistent Calculation

     iteration #  1     ecut=    66.00 Ry     beta= 0.10
     Davidson diagonalization with overlap
     ethr =  1.00E-02,  avg # of iterations =  5.2

     total cpu time spent up to now is       25.1 secs

     total energy              =   -1133.16482474 Ry
     Harris-Foulkes estimate   =   -1134.40390562 Ry
     estimated scf accuracy    <       1.41430596 Ry

     iteration #  2     ecut=    66.00 Ry     beta= 0.10
     Davidson diagonalization with overlap
     ethr =  1.47E-03,  avg # of iterations =  4.3

     total cpu time spent up to now is       35.8 secs

     total energy              =   -1129.58726338 Ry
     Harris-Foulkes estimate   =   -1133.27802332 Ry
     estimated scf accuracy    <       1.22913014 Ry

     iteration #  3     ecut=    66.00 Ry     beta= 0.10
     Davidson diagonalization with overlap
     ethr =  1.28E-03,  avg # of iterations =  4.5

     total cpu time spent up to now is       51.6 secs

     total energy              =   -1130.11980041 Ry
     Harris-Foulkes estimate   =   -1130.61883471 Ry
     estimated scf accuracy    <       0.20785008 Ry

     iteration #  4     ecut=    66.00 Ry     beta= 0.10
     Davidson diagonalization with overlap
     ethr =  2.17E-04,  avg # of iterations =  2.0

     total cpu time spent up to now is       66.2 secs

     total energy              =   -1130.04868621 Ry
     Harris-Foulkes estimate   =   -1130.13683938 Ry
     estimated scf accuracy    <       0.12539419 Ry

     iteration #  5     ecut=    66.00 Ry     beta= 0.10
     Davidson diagonalization with overlap
     ethr =  1.31E-04,  avg # of iterations =  4.3

     total cpu time spent up to now is       80.6 secs

     total energy              =   -1130.04261294 Ry
     Harris-Foulkes estimate   =   -1130.10328827 Ry
     estimated scf accuracy    <       0.01935735 Ry

     iteration #  6     ecut=    66.00 Ry     beta= 0.10
     Davidson diagonalization with overlap
     ethr =  2.02E-05,  avg # of iterations =  3.1

     total cpu time spent up to now is       90.1 secs

     total energy              =   -1130.04483100 Ry
     Harris-Foulkes estimate   =   -1130.04714075 Ry
     estimated scf accuracy    <       0.01041759 Ry

     iteration #  7     ecut=    66.00 Ry     beta= 0.10
     Davidson diagonalization with overlap
     c_bands:  4 eigenvalues not converged
     ethr =  1.09E-05,  avg # of iterations =  1.6

     total cpu time spent up to now is      105.5 secs

     total energy              =   -1130.01928296 Ry
     Harris-Foulkes estimate   =   -1130.04693673 Ry
     estimated scf accuracy    <       0.00696997 Ry

     iteration #  8     ecut=    66.00 Ry     beta= 0.10
     Davidson diagonalization with overlap
     c_bands:  2 eigenvalues not converged
     ethr =  7.26E-06,  avg # of iterations =  6.2

     total cpu time spent up to now is      123.4 secs

     total energy              =   -1130.04075601 Ry
     Harris-Foulkes estimate   =   -1130.04070179 Ry
     estimated scf accuracy    <       0.00034072 Ry

     iteration #  9     ecut=    66.00 Ry     beta= 0.10
     Davidson diagonalization with overlap
     c_bands:  2 eigenvalues not converged
     c_bands:  1 eigenvalues not converged
     c_bands:  1 eigenvalues not converged
     c_bands:  2 eigenvalues not converged
     c_bands:  2 eigenvalues not converged
     c_bands:  2 eigenvalues not converged
     c_bands:  1 eigenvalues not converged
     c_bands:  2 eigenvalues not converged
     c_bands:  2 eigenvalues not converged
     ethr =  3.55E-07,  avg # of iterations =  7.3

     total cpu time spent up to now is      141.9 secs

     total energy              =   -1130.04289005 Ry
     Harris-Foulkes estimate   =   -1130.04277064 Ry
     estimated scf accuracy    <       0.00041844 Ry

     iteration # 10     ecut=    66.00 Ry     beta= 0.10
     Davidson diagonalization with overlap
     c_bands:  2 eigenvalues not converged
     ethr =  3.55E-07,  avg # of iterations =  1.6

     total cpu time spent up to now is      149.0 secs

     total energy              =   -1130.04246812 Ry
     Harris-Foulkes estimate   =   -1130.04289211 Ry
     estimated scf accuracy    <       0.00041846 Ry

     iteration # 11     ecut=    66.00 Ry     beta= 0.10
     Davidson diagonalization with overlap
     ethr =  3.55E-07,  avg # of iterations =  1.5

     total cpu time spent up to now is      155.9 secs

     total energy              =   -1130.04137069 Ry
     Harris-Foulkes estimate   =   -1130.04249164 Ry
     estimated scf accuracy    <       0.00083841 Ry

     iteration # 12     ecut=    66.00 Ry     beta= 0.10
     Davidson diagonalization with overlap
     ethr =  3.55E-07,  avg # of iterations =  4.4

     total cpu time spent up to now is      170.9 secs

     total energy              =   -1130.04146437 Ry
     Harris-Foulkes estimate   =   -1130.04148894 Ry
     estimated scf accuracy    <       0.00249307 Ry

     iteration # 13     ecut=    66.00 Ry     beta= 0.10
     Davidson diagonalization with overlap
     ethr =  3.55E-07,  avg # of iterations =  1.0

     total cpu time spent up to now is      177.3 secs

     total energy              =   -1130.04161860 Ry
     Harris-Foulkes estimate   =   -1130.04146726 Ry
     estimated scf accuracy    <       0.00265916 Ry

     iteration # 14     ecut=    66.00 Ry     beta= 0.10
     Davidson diagonalization with overlap
     ethr =  3.55E-07,  avg # of iterations =  2.1

     total cpu time spent up to now is      185.0 secs

     total energy              =   -1130.04201428 Ry
     Harris-Foulkes estimate   =   -1130.04165091 Ry
     estimated scf accuracy    <       0.00341906 Ry

     iteration # 15     ecut=    66.00 Ry     beta= 0.10
     Davidson diagonalization with overlap
     ethr =  3.55E-07,  avg # of iterations =  3.8

     total cpu time spent up to now is      196.1 secs

     total energy              =   -1130.04192308 Ry
     Harris-Foulkes estimate   =   -1130.04206657 Ry
     estimated scf accuracy    <       0.00631681 Ry

     iteration # 16     ecut=    66.00 Ry     beta= 0.10
     Davidson diagonalization with overlap
     ethr =  3.55E-07,  avg # of iterations =  1.0

     total cpu time spent up to now is      202.5 secs

     total energy              =   -1130.04173730 Ry
     Harris-Foulkes estimate   =   -1130.04193283 Ry
     estimated scf accuracy    <       0.00515482 Ry

     iteration # 17     ecut=    66.00 Ry     beta= 0.10
     Davidson diagonalization with overlap
     ethr =  3.55E-07,  avg # of iterations =  1.5

     total cpu time spent up to now is      209.4 secs

     total energy              =   -1130.04143707 Ry
     Harris-Foulkes estimate   =   -1130.04175068 Ry
     estimated scf accuracy    <       0.00372266 Ry

     iteration # 18     ecut=    66.00 Ry     beta= 0.10
     Davidson diagonalization with overlap
     ethr =  3.55E-07,  avg # of iterations =  2.1

     total cpu time spent up to now is      216.9 secs

     total energy              =   -1130.04186002 Ry
     Harris-Foulkes estimate   =   -1130.04145293 Ry
     estimated scf accuracy    <       0.00300016 Ry

     iteration # 19     ecut=    66.00 Ry     beta= 0.10
     Davidson diagonalization with overlap
     ethr =  3.55E-07,  avg # of iterations =  1.2

     total cpu time spent up to now is      224.0 secs

     total energy              =   -1130.04101360 Ry
     Harris-Foulkes estimate   =   -1130.04188040 Ry
     estimated scf accuracy    <       0.00395823 Ry

     iteration # 20     ecut=    66.00 Ry     beta= 0.10
     Davidson diagonalization with overlap
     ethr =  3.55E-07,  avg # of iterations =  4.5

     total cpu time spent up to now is      238.3 secs

     total energy              =   -1130.04123266 Ry
     Harris-Foulkes estimate   =   -1130.04123899 Ry
     estimated scf accuracy    <       0.00020768 Ry

     iteration # 21     ecut=    66.00 Ry     beta= 0.10
     Davidson diagonalization with overlap
     ethr =  2.16E-07,  avg # of iterations =  1.0

     total cpu time spent up to now is      244.7 secs

     total energy              =   -1130.04122420 Ry
     Harris-Foulkes estimate   =   -1130.04123665 Ry
     estimated scf accuracy    <       0.00011778 Ry

     iteration # 22     ecut=    66.00 Ry     beta= 0.10
     Davidson diagonalization with overlap
     ethr =  1.23E-07,  avg # of iterations =  1.0

     total cpu time spent up to now is      251.0 secs

     total energy              =   -1130.04122328 Ry
     Harris-Foulkes estimate   =   -1130.04122686 Ry
     estimated scf accuracy    <       0.00012317 Ry

     iteration # 23     ecut=    66.00 Ry     beta= 0.10
     Davidson diagonalization with overlap
     ethr =  1.23E-07,  avg # of iterations =  1.1

     total cpu time spent up to now is      258.0 secs

     total energy              =   -1130.04121823 Ry
     Harris-Foulkes estimate   =   -1130.04122837 Ry
     estimated scf accuracy    <       0.00002501 Ry

     iteration # 24     ecut=    66.00 Ry     beta= 0.10
     Davidson diagonalization with overlap
     ethr =  2.61E-08,  avg # of iterations =  4.7

     total cpu time spent up to now is      271.7 secs

     total energy              =   -1130.04124144 Ry
     Harris-Foulkes estimate   =   -1130.04122774 Ry
     estimated scf accuracy    <       0.00002171 Ry

     iteration # 25     ecut=    66.00 Ry     beta= 0.10
     Davidson diagonalization with overlap
     ethr =  2.26E-08,  avg # of iterations =  1.5

     total cpu time spent up to now is      278.6 secs

     total energy              =   -1130.04124542 Ry
     Harris-Foulkes estimate   =   -1130.04124252 Ry
     estimated scf accuracy    <       0.00001077 Ry

     iteration # 26     ecut=    66.00 Ry     beta= 0.10
     Davidson diagonalization with overlap
     ethr =  1.12E-08,  avg # of iterations =  1.6

     total cpu time spent up to now is      286.0 secs

     total energy              =   -1130.04122233 Ry
     Harris-Foulkes estimate   =   -1130.04124597 Ry
     estimated scf accuracy    <       0.00000315 Ry

     iteration # 27     ecut=    66.00 Ry     beta= 0.10
     Davidson diagonalization with overlap
     ethr =  3.28E-09,  avg # of iterations =  4.0

     total cpu time spent up to now is      299.2 secs

     total energy              =   -1130.04122138 Ry
     Harris-Foulkes estimate   =   -1130.04122376 Ry
     estimated scf accuracy    <       0.00000105 Ry

     iteration # 28     ecut=    66.00 Ry     beta= 0.10
     Davidson diagonalization with overlap
     ethr =  1.10E-09,  avg # of iterations =  3.7

     total cpu time spent up to now is      310.1 secs

     End of self-consistent calculation

     Number of k-points >= 100: set verbosity='high' to print the bands.

     the Fermi energy is    52.7581 ev

!    total energy              =   -1130.04122094 Ry
     Harris-Foulkes estimate   =   -1130.04122158 Ry
     estimated scf accuracy    <       0.00000003 Ry

     total all-electron energy =    -15406.610243 Ry

     The total energy is the sum of the following terms:

     one-electron contribution =     469.14670889 Ry
     hartree contribution      =       1.75208346 Ry
     xc contribution           =    -138.28820267 Ry
     ewald contribution        =    -326.84024986 Ry
     one-center paw contrib.   =   -1135.81233327 Ry
     smearing contrib. (-TS)   =       0.00077251 Ry

     convergence has been achieved in  28 iterations

     Forces acting on atoms (cartesian axes, Ry/au):

     atom    1 type  1   force =    -0.00336147   -0.00413386    0.00115167
     atom    2 type  1   force =    -0.00457130   -0.00171955    0.01287601
     atom    3 type  1   force =     0.01324794    0.00144216   -0.02043846
     atom    4 type  1   force =    -0.00657480    0.00286452   -0.02367029
     atom    5 type  1   force =    -0.01486101   -0.01301505    0.01637689
     atom    6 type  1   force =    -0.01062621    0.01120864   -0.00656250
     atom    7 type  1   force =    -0.01474236   -0.03171825    0.01255737
     atom    8 type  1   force =    -0.00575069    0.00947414   -0.00457012
     atom    9 type  1   force =     0.01964605    0.00513430   -0.00104586
     atom   10 type  1   force =    -0.00608180    0.00960034   -0.02738621
     atom   11 type  1   force =    -0.00964194   -0.01877013   -0.01250403
     atom   12 type  1   force =    -0.01545423   -0.00539031   -0.00989628
     atom   13 type  1   force =    -0.00441880   -0.01758439    0.00608283
     atom   14 type  1   force =    -0.00987768    0.02026239    0.01904828
     atom   15 type  1   force =    -0.01777778    0.01494951    0.01762692
     atom   16 type  1   force =     0.02467818    0.01187460    0.01429676
     atom   17 type  1   force =    -0.01778681   -0.00462102   -0.00094749
     atom   18 type  1   force =     0.01008755   -0.00348396    0.01477442
     atom   19 type  1   force =     0.02003322    0.01307180   -0.00408935
     atom   20 type  1   force =     0.00620467    0.02079896   -0.00941769
     atom   21 type  1   force =     0.00476110   -0.02248431    0.00970037
     atom   22 type  1   force =    -0.00241264    0.02358081    0.01236944
     atom   23 type  1   force =     0.01283118   -0.00899810   -0.01226966
     atom   24 type  1   force =     0.01425863    0.00481978    0.00380543
     atom   25 type  1   force =    -0.01158207   -0.00071422    0.00593780
     atom   26 type  1   force =     0.01125460   -0.00866958    0.00365341
     atom   27 type  1   force =    -0.00879907   -0.00755244    0.00342211
     atom   28 type  1   force =     0.00486772    0.00076611    0.00560447
     atom   29 type  1   force =     0.03851907   -0.01876494    0.00205256
     atom   30 type  1   force =    -0.00472714    0.00752987   -0.00100490
     atom   31 type  1   force =    -0.01092999   -0.00543957   -0.01713485
     atom   32 type  1   force =    -0.00041213    0.01568174   -0.01039904

     Total force =     0.127634     Total SCF correction =     0.000158


     Computing stress (Cartesian axis) and pressure

          total   stress  (Ry/bohr**3)                   (kbar)     P=59594.38
   0.40511354   0.00000009   0.00000081      59594.25      0.01      0.12
   0.00000009   0.40511478  -0.00000136          0.01  59594.43     -0.20
   0.00000081  -0.00000136   0.40511505          0.12     -0.20  59594.47


     Writing output data file fe_scf_fcc_2.save/
 
     init_run     :      5.81s CPU      6.21s WALL (       1 calls)
     electrons    :    277.68s CPU    303.25s WALL (       1 calls)
     forces       :      1.21s CPU      1.32s WALL (       1 calls)
     stress       :      2.68s CPU      2.71s WALL (       1 calls)

     Called by init_run:
     wfcinit      :      5.68s CPU      5.99s WALL (       1 calls)
     potinit      :      0.08s CPU      0.12s WALL (       1 calls)
     hinit0       :      0.03s CPU      0.04s WALL (       1 calls)

     Called by electrons:
     c_bands      :    251.63s CPU    275.12s WALL (      28 calls)
     sum_band     :     24.30s CPU     26.00s WALL (      28 calls)
     v_of_rho     :      0.06s CPU      0.09s WALL (      29 calls)
     newd         :      0.06s CPU      0.07s WALL (      29 calls)
     PAW_pot      :      1.65s CPU      1.66s WALL (      29 calls)
     mix_rho      :      0.04s CPU      0.04s WALL (      28 calls)

     Called by c_bands:
     init_us_2    :      2.51s CPU      2.60s WALL (   10148 calls)
     cegterg      :    241.41s CPU    250.18s WALL (    4816 calls)

     Called by sum_band:
     sum_band:bec :      0.34s CPU      0.39s WALL (    4816 calls)
     addusdens    :      0.03s CPU      0.03s WALL (      28 calls)

     Called by *egterg:
     h_psi        :    111.53s CPU    118.57s WALL (   19036 calls)
     s_psi        :      8.72s CPU      8.84s WALL (   19036 calls)
     g_psi        :      0.40s CPU      0.41s WALL (   14048 calls)
     cdiaghg      :    101.41s CPU    102.00s WALL (   18864 calls)

     Called by h_psi:
     h_psi:pot    :    110.98s CPU    117.99s WALL (   19036 calls)
     h_psi:calbec :     11.06s CPU     12.71s WALL (   19036 calls)
     vloc_psi     :     90.79s CPU     95.85s WALL (   19036 calls)
     add_vuspsi   :      9.04s CPU      9.36s WALL (   19036 calls)

     General routines
     calbec       :     16.07s CPU     18.43s WALL (   24712 calls)
     fft          :      0.07s CPU      0.10s WALL (     345 calls)
     ffts         :      0.01s CPU      0.01s WALL (      28 calls)
     fftw         :    102.44s CPU    108.12s WALL ( 1690570 calls)
 
     Parallel routines
     fft_scatt_xy :      7.90s CPU      8.34s WALL ( 1690943 calls)
     fft_scatt_yz :     65.72s CPU     69.33s WALL ( 1690943 calls)
 
     PWSCF        :  4m50.59s CPU     5m46.86s WALL

 
   This run was terminated on:  12: 9:16  23Oct2019            

=------------------------------------------------------------------------------=
   JOB DONE.
=------------------------------------------------------------------------------=
