
     Program PWSCF v.6.3 starts on 24Oct2019 at  2: 6:51 

     This program is part of the open-source Quantum ESPRESSO suite
     for quantum simulation of materials; please cite
         "P. Giannozzi et al., J. Phys.:Condens. Matter 21 395502 (2009);
         "P. Giannozzi et al., J. Phys.:Condens. Matter 29 465901 (2017);
          URL http://www.quantum-espresso.org", 
     in publications or presentations arising from this work. More details at
     http://www.quantum-espresso.org/quote

     Parallel version (MPI & OpenMP), running on      20 processor cores
     Number of MPI processes:                20
     Threads/MPI process:                     1

     MPI processes distributed on     1 nodes
     R & G space division:  proc/nbgrp/npool/nimage =      20
     Reading input from /rds/homes/b/bxp912/jobs/20191024_test1/wd/runpwscf/file_10260.in
Warning: card &IONS ignored
Warning: card ION_DYNAMICS = 'BFGS', ignored
Warning: card / ignored
Warning: card &CELL ignored
Warning: card CELL_DYNAMICS = 'BFGS', ignored
Warning: card CELL_FACTOR = 2.0, ignored
Warning: card PRESS = 0.0, ignored
Warning: card / ignored

     Current dimensions of program PWSCF are:
     Max number of different atomic species (ntypx) = 10
     Max number of k-points (npk) =  40000
     Max angular momentum in pseudopotentials (lmaxx) =  3
     Message from routine read_upf::
     Pseudo file /rds/homes/b/bxp912/pp/Al.pbe-nl-kjpaw_psl.1.0.0.UPF has been successfully fixed on the fly.
To avoid this message in the future you can permanently fix 
 your pseudo files following instructions given in: 
https://gitlab.com/QEF/q-e/blob/master/upftools/how_to_fix_upf.md
               file Al.pbe-nl-kjpaw_psl.1.0.0.UPF: wavefunction(s)  3S 3P renormalized

     Subspace diagonalization in iterative solution of the eigenvalue problem:
     a serial algorithm will be used

 
     Parallelization info
     --------------------
     sticks:   dense  smooth     PW     G-vecs:    dense   smooth      PW
     Min          52      52     20                 1262     1262     300
     Max          53      53     21                 1265     1265     303
     Sum        1041    1041    401                25269    25269    6031
 


     bravais-lattice index     =            0
     lattice parameter (alat)  =       8.0800  a.u.
     unit-cell volume          =     527.5141 (a.u.)^3
     number of atoms/cell      =           32
     number of atomic types    =            1
     number of electrons       =        96.00
     number of Kohn-Sham states=           58
     kinetic-energy cutoff     =      66.0000  Ry
     charge density cutoff     =     200.0000  Ry
     convergence threshold     =      1.0E-06
     mixing beta               =       0.1000
     number of iterations used =           10  TF        mixing
     Exchange-correlation      = SLA PW PBX PBC ( 1  4  3  4 0 0)

     celldm(1)=   8.080000  celldm(2)=   0.000000  celldm(3)=   0.000000
     celldm(4)=   0.000000  celldm(5)=   0.000000  celldm(6)=   0.000000

     crystal axes: (cart. coord. in units of alat)
               a(1) = (   1.000000   0.000000   0.000000 )  
               a(2) = (   0.000000   1.000000   0.000000 )  
               a(3) = (   0.000000   0.000000   1.000000 )  

     reciprocal axes: (cart. coord. in units 2 pi/alat)
               b(1) = (  1.000000  0.000000  0.000000 )  
               b(2) = (  0.000000  1.000000  0.000000 )  
               b(3) = (  0.000000  0.000000  1.000000 )  


     PseudoPot. # 1 for Al read from file:
     /rds/homes/b/bxp912/pp/Al.pbe-nl-kjpaw_psl.1.0.0.UPF
     MD5 check sum: 339dbea23cf3ab9a065ad45c0f9085d7
     Pseudo is Projector augmented-wave + core cor, Zval =  3.0
     Generated using "atomic" code by A. Dal Corso v.5.1
     Shape of augmentation charge: PSQ
     Using radial grid of 1135 points,  4 beta functions with: 
                l(1) =   0
                l(2) =   0
                l(3) =   1
                l(4) =   1
     Q(r) pseudized with 0 coefficients 


     atomic species   valence    mass     pseudopotential
        Al             3.00    26.98200     Al( 1.00)

     No symmetry found



   Cartesian axes

     site n.     atom                  positions (alat units)
         1           Al  tau(   1) = (  -0.0000618   0.0000180   0.0001286  )
         2           Al  tau(   2) = (   0.2501504   0.2496409   0.0001329  )
         3           Al  tau(   3) = (   0.2498245   0.0000576   0.2505585  )
         4           Al  tau(   4) = (  -0.0000378   0.2504134   0.2503472  )
         5           Al  tau(   5) = (   0.0004835   0.0004765   0.4997751  )
         6           Al  tau(   6) = (   0.2502257   0.2496836   0.5000068  )
         7           Al  tau(   7) = (   0.2500525   0.0002908   0.7497884  )
         8           Al  tau(   8) = (   0.0001038   0.2502148   0.7503971  )
         9           Al  tau(   9) = (   0.0004488   0.5002037  -0.0000292  )
        10           Al  tau(  10) = (   0.2502638   0.7503330   0.0007661  )
        11           Al  tau(  11) = (   0.2503574   0.5002057   0.2504745  )
        12           Al  tau(  12) = (   0.0000725   0.7500861   0.2500479  )
        13           Al  tau(  13) = (   0.0002082   0.5002952   0.5001871  )
        14           Al  tau(  14) = (   0.2499320   0.7501195   0.4997555  )
        15           Al  tau(  15) = (   0.2506361   0.4996019   0.7494255  )
        16           Al  tau(  16) = (  -0.0006199   0.7494434   0.7499870  )
        17           Al  tau(  17) = (   0.5003850  -0.0001898  -0.0000732  )
        18           Al  tau(  18) = (   0.7498343   0.2501778  -0.0004407  )
        19           Al  tau(  19) = (   0.7493109  -0.0001812   0.2501458  )
        20           Al  tau(  20) = (   0.4999530   0.2499270   0.2496819  )
        21           Al  tau(  21) = (   0.4998509   0.0005536   0.4999482  )
        22           Al  tau(  22) = (   0.7501292   0.2494251   0.4999098  )
        23           Al  tau(  23) = (   0.7500676  -0.0001298   0.7500485  )
        24           Al  tau(  24) = (   0.5000215   0.2497853   0.7499902  )
        25           Al  tau(  25) = (   0.4997214   0.5002185  -0.0004144  )
        26           Al  tau(  26) = (   0.7495697   0.7501849   0.0005172  )
        27           Al  tau(  27) = (   0.7501903   0.4996254   0.2498983  )
        28           Al  tau(  28) = (   0.5001659   0.7496046   0.2503955  )
        29           Al  tau(  29) = (   0.4993878   0.5001941   0.5000764  )
        30           Al  tau(  30) = (   0.7503133   0.7499759   0.4997253  )
        31           Al  tau(  31) = (   0.7499001   0.5000179   0.7502634  )
        32           Al  tau(  32) = (   0.5000268   0.7499029   0.7498445  )

     number of k points=   365  Marzari-Vanderbilt smearing, width (Ry)=  0.0050

     Number of k-points >= 100: set verbosity='high' to print them.

     Dense  grid:    25269 G-vectors     FFT dimensions: (  40,  40,  40)

     Estimated max dynamical RAM per process >      84.48 MB

     Estimated total dynamical RAM >       1.65 GB

     Initial potential from superposition of free atoms

     starting charge   95.92671, renormalised to   96.00000
     Starting wfcs are  128 randomized atomic wfcs
     Checking if some PAW data can be deallocated... 

     total cpu time spent up to now is       13.3 secs

     Self-consistent Calculation

     iteration #  1     ecut=    66.00 Ry     beta= 0.10
     Davidson diagonalization with overlap
     ethr =  1.00E-02,  avg # of iterations =  5.2

     total cpu time spent up to now is       51.6 secs

     total energy              =   -1133.16904139 Ry
     Harris-Foulkes estimate   =   -1134.40444895 Ry
     estimated scf accuracy    <       1.41792246 Ry

     iteration #  2     ecut=    66.00 Ry     beta= 0.10
     Davidson diagonalization with overlap
     ethr =  1.48E-03,  avg # of iterations =  3.2

     total cpu time spent up to now is       72.0 secs

     total energy              =   -1129.57775055 Ry
     Harris-Foulkes estimate   =   -1133.27713448 Ry
     estimated scf accuracy    <       1.23001141 Ry

     iteration #  3     ecut=    66.00 Ry     beta= 0.10
     Davidson diagonalization with overlap
     ethr =  1.28E-03,  avg # of iterations =  4.2

     total cpu time spent up to now is      103.5 secs

     total energy              =   -1130.15094525 Ry
     Harris-Foulkes estimate   =   -1130.56217600 Ry
     estimated scf accuracy    <       0.20692760 Ry

     iteration #  4     ecut=    66.00 Ry     beta= 0.10
     Davidson diagonalization with overlap
     ethr =  2.16E-04,  avg # of iterations =  2.8

     total cpu time spent up to now is      122.6 secs

     total energy              =   -1130.04140699 Ry
     Harris-Foulkes estimate   =   -1130.16636418 Ry
     estimated scf accuracy    <       0.13324902 Ry

     iteration #  5     ecut=    66.00 Ry     beta= 0.10
     Davidson diagonalization with overlap
     ethr =  1.39E-04,  avg # of iterations =  3.9

     total cpu time spent up to now is      151.8 secs

     total energy              =   -1130.02733386 Ry
     Harris-Foulkes estimate   =   -1130.09243821 Ry
     estimated scf accuracy    <       0.01617097 Ry

     iteration #  6     ecut=    66.00 Ry     beta= 0.10
     Davidson diagonalization with overlap
     c_bands:  1 eigenvalues not converged
     c_bands:  1 eigenvalues not converged
     c_bands:  1 eigenvalues not converged
     c_bands:  1 eigenvalues not converged
     c_bands:  1 eigenvalues not converged
     c_bands:  2 eigenvalues not converged
     c_bands:  3 eigenvalues not converged
     ethr =  1.68E-05,  avg # of iterations =  4.7

     total cpu time spent up to now is      179.2 secs

     total energy              =   -1130.04334925 Ry
     Harris-Foulkes estimate   =   -1130.04578089 Ry
     estimated scf accuracy    <       0.00635536 Ry

     iteration #  7     ecut=    66.00 Ry     beta= 0.10
     Davidson diagonalization with overlap
     ethr =  6.62E-06,  avg # of iterations =  4.2

     total cpu time spent up to now is      202.7 secs

     total energy              =   -1130.04153835 Ry
     Harris-Foulkes estimate   =   -1130.05430157 Ry
     estimated scf accuracy    <       0.00492339 Ry

     iteration #  8     ecut=    66.00 Ry     beta= 0.10
     Davidson diagonalization with overlap
     c_bands:  1 eigenvalues not converged
     c_bands:  1 eigenvalues not converged
     c_bands:  1 eigenvalues not converged
     c_bands:  1 eigenvalues not converged
     c_bands:  2 eigenvalues not converged
     c_bands:  2 eigenvalues not converged
     c_bands:  1 eigenvalues not converged
     c_bands:  1 eigenvalues not converged
     c_bands:  1 eigenvalues not converged
     c_bands:  1 eigenvalues not converged
     ethr =  5.13E-06,  avg # of iterations =  4.0

     total cpu time spent up to now is      226.3 secs

     total energy              =   -1130.04297574 Ry
     Harris-Foulkes estimate   =   -1130.04244507 Ry
     estimated scf accuracy    <       0.00088548 Ry

     iteration #  9     ecut=    66.00 Ry     beta= 0.10
     Davidson diagonalization with overlap
     c_bands:  1 eigenvalues not converged
     c_bands:  2 eigenvalues not converged
     c_bands:  1 eigenvalues not converged
     c_bands:  1 eigenvalues not converged
     c_bands:  1 eigenvalues not converged
     c_bands:  1 eigenvalues not converged
     c_bands:  1 eigenvalues not converged
     c_bands:  1 eigenvalues not converged
     c_bands:  1 eigenvalues not converged
     c_bands:  1 eigenvalues not converged
     ethr =  9.22E-07,  avg # of iterations =  7.8

     total cpu time spent up to now is      263.9 secs

     total energy              =   -1130.04838226 Ry
     Harris-Foulkes estimate   =   -1130.04800158 Ry
     estimated scf accuracy    <       0.00057393 Ry

     iteration # 10     ecut=    66.00 Ry     beta= 0.10
     Davidson diagonalization with overlap
     c_bands:  2 eigenvalues not converged
     c_bands:  1 eigenvalues not converged
     ethr =  5.98E-07,  avg # of iterations =  1.7

     total cpu time spent up to now is      279.7 secs

     total energy              =   -1130.04849133 Ry
     Harris-Foulkes estimate   =   -1130.04840993 Ry
     estimated scf accuracy    <       0.00029113 Ry

     iteration # 11     ecut=    66.00 Ry     beta= 0.10
     Davidson diagonalization with overlap
     ethr =  3.03E-07,  avg # of iterations =  1.0

     total cpu time spent up to now is      294.1 secs

     total energy              =   -1130.04809822 Ry
     Harris-Foulkes estimate   =   -1130.04849636 Ry
     estimated scf accuracy    <       0.00029582 Ry

     iteration # 12     ecut=    66.00 Ry     beta= 0.10
     Davidson diagonalization with overlap
     ethr =  3.03E-07,  avg # of iterations =  1.0

     total cpu time spent up to now is      308.4 secs

     total energy              =   -1130.04723018 Ry
     Harris-Foulkes estimate   =   -1130.04810429 Ry
     estimated scf accuracy    <       0.00017202 Ry

     iteration # 13     ecut=    66.00 Ry     beta= 0.10
     Davidson diagonalization with overlap
     ethr =  1.79E-07,  avg # of iterations =  5.4

     total cpu time spent up to now is      348.0 secs

     total energy              =   -1130.04741233 Ry
     Harris-Foulkes estimate   =   -1130.04743599 Ry
     estimated scf accuracy    <       0.00257096 Ry

     iteration # 14     ecut=    66.00 Ry     beta= 0.10
     Davidson diagonalization with overlap
     ethr =  1.79E-07,  avg # of iterations =  1.0

     total cpu time spent up to now is      362.3 secs

     total energy              =   -1130.04765955 Ry
     Harris-Foulkes estimate   =   -1130.04741289 Ry
     estimated scf accuracy    <       0.00256573 Ry

     iteration # 15     ecut=    66.00 Ry     beta= 0.10
     Davidson diagonalization with overlap
     ethr =  1.79E-07,  avg # of iterations =  1.0

     total cpu time spent up to now is      376.6 secs

     total energy              =   -1130.04700591 Ry
     Harris-Foulkes estimate   =   -1130.04766083 Ry
     estimated scf accuracy    <       0.00240356 Ry

     iteration # 16     ecut=    66.00 Ry     beta= 0.10
     Davidson diagonalization with overlap
     ethr =  1.79E-07,  avg # of iterations =  1.4

     total cpu time spent up to now is      391.7 secs

     total energy              =   -1130.04541478 Ry
     Harris-Foulkes estimate   =   -1130.04702189 Ry
     estimated scf accuracy    <       0.00153503 Ry

     iteration # 17     ecut=    66.00 Ry     beta= 0.10
     Davidson diagonalization with overlap
     c_bands:  1 eigenvalues not converged
     c_bands:  1 eigenvalues not converged
     c_bands:  1 eigenvalues not converged
     c_bands:  1 eigenvalues not converged
     c_bands:  1 eigenvalues not converged
     c_bands:  1 eigenvalues not converged
     ethr =  1.79E-07,  avg # of iterations =  5.2

     total cpu time spent up to now is      431.4 secs

     total energy              =   -1130.04567367 Ry
     Harris-Foulkes estimate   =   -1130.04569460 Ry
     estimated scf accuracy    <       0.00015191 Ry

     iteration # 18     ecut=    66.00 Ry     beta= 0.10
     Davidson diagonalization with overlap
     ethr =  1.58E-07,  avg # of iterations =  1.2

     total cpu time spent up to now is      446.1 secs

     total energy              =   -1130.04564707 Ry
     Harris-Foulkes estimate   =   -1130.04567493 Ry
     estimated scf accuracy    <       0.00018005 Ry

     iteration # 19     ecut=    66.00 Ry     beta= 0.10
     Davidson diagonalization with overlap
     ethr =  1.58E-07,  avg # of iterations =  1.0

     total cpu time spent up to now is      460.4 secs

     total energy              =   -1130.04565423 Ry
     Harris-Foulkes estimate   =   -1130.04564852 Ry
     estimated scf accuracy    <       0.00012481 Ry

     iteration # 20     ecut=    66.00 Ry     beta= 0.10
     Davidson diagonalization with overlap
     ethr =  1.30E-07,  avg # of iterations =  1.0

     total cpu time spent up to now is      474.8 secs

     total energy              =   -1130.04564595 Ry
     Harris-Foulkes estimate   =   -1130.04565729 Ry
     estimated scf accuracy    <       0.00022824 Ry

     iteration # 21     ecut=    66.00 Ry     beta= 0.10
     Davidson diagonalization with overlap
     ethr =  1.30E-07,  avg # of iterations =  1.0

     total cpu time spent up to now is      489.1 secs

     total energy              =   -1130.04565181 Ry
     Harris-Foulkes estimate   =   -1130.04564744 Ry
     estimated scf accuracy    <       0.00015215 Ry

     iteration # 22     ecut=    66.00 Ry     beta= 0.10
     Davidson diagonalization with overlap
     ethr =  1.30E-07,  avg # of iterations =  1.0

     total cpu time spent up to now is      503.5 secs

     total energy              =   -1130.04563723 Ry
     Harris-Foulkes estimate   =   -1130.04565497 Ry
     estimated scf accuracy    <       0.00011411 Ry

     iteration # 23     ecut=    66.00 Ry     beta= 0.10
     Davidson diagonalization with overlap
     ethr =  1.19E-07,  avg # of iterations =  1.0

     total cpu time spent up to now is      517.8 secs

     total energy              =   -1130.04563877 Ry
     Harris-Foulkes estimate   =   -1130.04563851 Ry
     estimated scf accuracy    <       0.00007910 Ry

     iteration # 24     ecut=    66.00 Ry     beta= 0.10
     Davidson diagonalization with overlap
     ethr =  8.24E-08,  avg # of iterations =  1.0

     total cpu time spent up to now is      532.9 secs

     total energy              =   -1130.04564944 Ry
     Harris-Foulkes estimate   =   -1130.04564155 Ry
     estimated scf accuracy    <       0.00002949 Ry

     iteration # 25     ecut=    66.00 Ry     beta= 0.10
     Davidson diagonalization with overlap
     ethr =  3.07E-08,  avg # of iterations =  3.4

     total cpu time spent up to now is      553.2 secs

     total energy              =   -1130.04566369 Ry
     Harris-Foulkes estimate   =   -1130.04565156 Ry
     estimated scf accuracy    <       0.00000550 Ry

     iteration # 26     ecut=    66.00 Ry     beta= 0.10
     Davidson diagonalization with overlap
     ethr =  5.72E-09,  avg # of iterations =  4.3

     total cpu time spent up to now is      578.0 secs

     total energy              =   -1130.04566298 Ry
     Harris-Foulkes estimate   =   -1130.04566464 Ry
     estimated scf accuracy    <       0.00000675 Ry

     iteration # 27     ecut=    66.00 Ry     beta= 0.10
     Davidson diagonalization with overlap
     ethr =  5.72E-09,  avg # of iterations =  2.5

     total cpu time spent up to now is      595.9 secs

     total energy              =   -1130.04563822 Ry
     Harris-Foulkes estimate   =   -1130.04566351 Ry
     estimated scf accuracy    <       0.00001806 Ry

     iteration # 28     ecut=    66.00 Ry     beta= 0.10
     Davidson diagonalization with overlap
     ethr =  5.72E-09,  avg # of iterations =  4.2

     total cpu time spent up to now is      627.0 secs

     total energy              =   -1130.04564161 Ry
     Harris-Foulkes estimate   =   -1130.04564265 Ry
     estimated scf accuracy    <       0.00000911 Ry

     iteration # 29     ecut=    66.00 Ry     beta= 0.10
     Davidson diagonalization with overlap
     ethr =  5.72E-09,  avg # of iterations =  2.9

     total cpu time spent up to now is      647.6 secs

     End of self-consistent calculation

     Number of k-points >= 100: set verbosity='high' to print the bands.

     the Fermi energy is    52.7270 ev

!    total energy              =   -1130.04563240 Ry
     Harris-Foulkes estimate   =   -1130.04564270 Ry
     estimated scf accuracy    <       0.00000080 Ry

     total all-electron energy =    -15406.614654 Ry

     The total energy is the sum of the following terms:

     one-electron contribution =     469.09080492 Ry
     hartree contribution      =       1.74953787 Ry
     xc contribution           =    -138.28093318 Ry
     ewald contribution        =    -326.84024986 Ry
     one-center paw contrib.   =   -1135.76475360 Ry
     smearing contrib. (-TS)   =      -0.00003854 Ry

     convergence has been achieved in  29 iterations

     Forces acting on atoms (cartesian axes, Ry/au):

     atom    1 type  1   force =    -0.00321935   -0.00423006    0.00125530
     atom    2 type  1   force =    -0.00453406   -0.00131129    0.01260645
     atom    3 type  1   force =     0.01284612    0.00164048   -0.02052087
     atom    4 type  1   force =    -0.00641094    0.00282381   -0.02363693
     atom    5 type  1   force =    -0.01525917   -0.01309711    0.01644099
     atom    6 type  1   force =    -0.01078341    0.01128304   -0.00640823
     atom    7 type  1   force =    -0.01458992   -0.03169858    0.01266118
     atom    8 type  1   force =    -0.00572563    0.00910423   -0.00462423
     atom    9 type  1   force =     0.01904469    0.00489934   -0.00080620
     atom   10 type  1   force =    -0.00633223    0.00926521   -0.02744785
     atom   11 type  1   force =    -0.00964270   -0.01867636   -0.01285845
     atom   12 type  1   force =    -0.01534881   -0.00526847   -0.00962007
     atom   13 type  1   force =    -0.00457406   -0.01766043    0.00594365
     atom   14 type  1   force =    -0.00971221    0.02008580    0.01918703
     atom   15 type  1   force =    -0.01801504    0.01527827    0.01797219
     atom   16 type  1   force =     0.02484544    0.01232105    0.01415799
     atom   17 type  1   force =    -0.01791016   -0.00462220   -0.00087058
     atom   18 type  1   force =     0.01000075   -0.00349355    0.01481131
     atom   19 type  1   force =     0.02032633    0.01295929   -0.00423531
     atom   20 type  1   force =     0.00623439    0.02048565   -0.00922196
     atom   21 type  1   force =     0.00508417   -0.02271925    0.00964626
     atom   22 type  1   force =    -0.00222940    0.02380136    0.01212316
     atom   23 type  1   force =     0.01257729   -0.00878184   -0.01208299
     atom   24 type  1   force =     0.01425561    0.00487573    0.00358780
     atom   25 type  1   force =    -0.01107763   -0.00107217    0.00611449
     atom   26 type  1   force =     0.01144498   -0.00866734    0.00321581
     atom   27 type  1   force =    -0.00878578   -0.00718682    0.00346011
     atom   28 type  1   force =     0.00478917    0.00114512    0.00516697
     atom   29 type  1   force =     0.03855538   -0.01877225    0.00196453
     atom   30 type  1   force =    -0.00491127    0.00727014   -0.00064932
     atom   31 type  1   force =    -0.01043565   -0.00548783   -0.01723561
     atom   32 type  1   force =    -0.00050690    0.01550703   -0.01009662

     Total force =     0.127501     Total SCF correction =     0.001369


     Computing stress (Cartesian axis) and pressure

          total   stress  (Ry/bohr**3)                   (kbar)     P=59536.58
   0.40472061   0.00000010   0.00000084      59536.45      0.02      0.12
   0.00000010   0.40472269  -0.00000151          0.02  59536.75     -0.22
   0.00000084  -0.00000151   0.40472126          0.12     -0.22  59536.54


     Writing output data file fe_scf_fcc_2.save/
 
     init_run     :     12.01s CPU     12.81s WALL (       1 calls)
     electrons    :    605.01s CPU    634.36s WALL (       1 calls)
     forces       :      2.36s CPU      2.66s WALL (       1 calls)
     stress       :      4.37s CPU      4.51s WALL (       1 calls)

     Called by init_run:
     wfcinit      :     11.91s CPU     12.66s WALL (       1 calls)
     potinit      :      0.07s CPU      0.07s WALL (       1 calls)
     hinit0       :      0.02s CPU      0.06s WALL (       1 calls)

     Called by electrons:
     c_bands      :    547.23s CPU    571.67s WALL (      29 calls)
     sum_band     :     56.03s CPU     60.80s WALL (      29 calls)
     v_of_rho     :      0.07s CPU      0.12s WALL (      30 calls)
     newd         :      0.06s CPU      0.07s WALL (      30 calls)
     PAW_pot      :      1.62s CPU      1.64s WALL (      30 calls)
     mix_rho      :      0.04s CPU      0.05s WALL (      29 calls)

     Called by c_bands:
     init_us_2    :      4.31s CPU      4.46s WALL (   22265 calls)
     cegterg      :    527.00s CPU    550.77s WALL (   10585 calls)

     Called by sum_band:
     sum_band:bec :      0.77s CPU      0.79s WALL (   10585 calls)
     addusdens    :      0.02s CPU      0.03s WALL (      29 calls)

     Called by *egterg:
     h_psi        :    255.45s CPU    273.98s WALL (   40950 calls)
     s_psi        :     16.25s CPU     16.54s WALL (   40950 calls)
     g_psi        :      0.85s CPU      0.86s WALL (   30000 calls)
     cdiaghg      :    215.57s CPU    217.22s WALL (   40585 calls)

     Called by h_psi:
     h_psi:pot    :    254.58s CPU    273.10s WALL (   40950 calls)
     h_psi:calbec :     25.32s CPU     31.22s WALL (   40950 calls)
     vloc_psi     :    211.78s CPU    223.89s WALL (   40950 calls)
     add_vuspsi   :     17.29s CPU     17.83s WALL (   40950 calls)

     General routines
     calbec       :     35.81s CPU     44.42s WALL (   53360 calls)
     fft          :      0.09s CPU      0.19s WALL (     356 calls)
     ffts         :      0.01s CPU      0.03s WALL (      29 calls)
     fftw         :    240.60s CPU    254.24s WALL ( 3664998 calls)
 
     Parallel routines
     fft_scatt_xy :     17.10s CPU     18.08s WALL ( 3665383 calls)
     fft_scatt_yz :    160.96s CPU    170.34s WALL ( 3665383 calls)
 
     PWSCF        : 10m27.79s CPU    11m 2.40s WALL

 
   This run was terminated on:   2:17:53  24Oct2019            

=------------------------------------------------------------------------------=
   JOB DONE.
=------------------------------------------------------------------------------=
