
     Program PWSCF v.6.3 starts on 31Mar2020 at 18:35:43 

     This program is part of the open-source Quantum ESPRESSO suite
     for quantum simulation of materials; please cite
         "P. Giannozzi et al., J. Phys.:Condens. Matter 21 395502 (2009);
         "P. Giannozzi et al., J. Phys.:Condens. Matter 29 465901 (2017);
          URL http://www.quantum-espresso.org", 
     in publications or presentations arising from this work. More details at
     http://www.quantum-espresso.org/quote

     Parallel version (MPI & OpenMP), running on      20 processor cores
     Number of MPI processes:                20
     Threads/MPI process:                     1

     MPI processes distributed on     1 nodes
     R & G space division:  proc/nbgrp/npool/nimage =      20
     Reading input from wd/ecut/file_000143.in
Warning: card &IONS ignored
Warning: card ION_DYNAMICS = 'BFGS', ignored
Warning: card / ignored
Warning: card &CELL ignored
Warning: card CELL_DYNAMICS = 'BFGS', ignored
Warning: card CELL_FACTOR = 2.0, ignored
Warning: card PRESS = 0.0, ignored
Warning: card / ignored

     Current dimensions of program PWSCF are:
     Max number of different atomic species (ntypx) = 10
     Max number of k-points (npk) =  40000
     Max angular momentum in pseudopotentials (lmaxx) =  3
               file Pd.pbe-spn-kjpaw_psl.1.0.0.UPF: wavefunction(s)  4S 5S 4D renormalized

     Subspace diagonalization in iterative solution of the eigenvalue problem:
     a serial algorithm will be used

 
     Parallelization info
     --------------------
     sticks:   dense  smooth     PW     G-vecs:    dense   smooth      PW
     Min          99      74     21                 3314     2146     337
     Max         101      75     22                 3315     2149     340
     Sum        1993    1481    437                66299    42931    6763
 


     bravais-lattice index     =            0
     lattice parameter (alat)  =       7.3521  a.u.
     unit-cell volume          =     397.4058 (a.u.)^3
     number of atoms/cell      =            4
     number of atomic types    =            1
     number of electrons       =        72.00
     number of Kohn-Sham states=           43
     kinetic-energy cutoff     =      86.0000  Ry
     charge density cutoff     =     460.0000  Ry
     convergence threshold     =      1.0E-06
     mixing beta               =       0.1000
     number of iterations used =           10  plain     mixing
     Exchange-correlation      = SLA PW PBX PBC ( 1  4  3  4 0 0)

     celldm(1)=   7.352100  celldm(2)=   0.000000  celldm(3)=   0.000000
     celldm(4)=   0.000000  celldm(5)=   0.000000  celldm(6)=   0.000000

     crystal axes: (cart. coord. in units of alat)
               a(1) = (   1.000000   0.000000   0.000000 )  
               a(2) = (   0.000000   1.000000   0.000000 )  
               a(3) = (   0.000000   0.000000   1.000000 )  

     reciprocal axes: (cart. coord. in units 2 pi/alat)
               b(1) = (  1.000000  0.000000  0.000000 )  
               b(2) = (  0.000000  1.000000  0.000000 )  
               b(3) = (  0.000000  0.000000  1.000000 )  


     PseudoPot. # 1 for Pd read from file:
     /rds/homes/b/bxp912/pp/Pd.pbe-spn-kjpaw_psl.1.0.0.UPF
     MD5 check sum: 790f2ebce206edfd9790dcb9844eca51
     Pseudo is Projector augmented-wave + core cor, Zval = 18.0
     Generated using "atomic" code by A. Dal Corso v.6.3
     Shape of augmentation charge: PSQ
     Using radial grid of 1235 points,  6 beta functions with: 
                l(1) =   0
                l(2) =   0
                l(3) =   1
                l(4) =   1
                l(5) =   2
                l(6) =   2
     Q(r) pseudized with 0 coefficients 


     atomic species   valence    mass     pseudopotential
        Pd            18.00   106.42000     Pd( 1.00)

     No symmetry found



   Cartesian axes

     site n.     atom                  positions (alat units)
         1           Pd  tau(   1) = (  -0.0000679   0.0000198   0.0001413  )
         2           Pd  tau(   2) = (   0.5001653   0.4996054   0.0001461  )
         3           Pd  tau(   3) = (   0.4998071   0.0000633   0.5006138  )
         4           Pd  tau(   4) = (  -0.0000415   0.5004543   0.5003815  )

     number of k points=    14  Marzari-Vanderbilt smearing, width (Ry)=  0.0200
                       cart. coord. in units 2pi/alat
        k(    1) = (   0.1666667   0.1666667   0.1666667), wk =   0.1481481
        k(    2) = (   0.1666667   0.1666667  -0.5000000), wk =   0.1481481
        k(    3) = (   0.1666667  -0.5000000  -0.5000000), wk =   0.1481481
        k(    4) = (  -0.5000000  -0.5000000  -0.5000000), wk =   0.0740741
        k(    5) = (  -0.1666667  -0.1666667   0.1666667), wk =   0.1481481
        k(    6) = (  -0.1666667   0.1666667  -0.1666667), wk =   0.1481481
        k(    7) = (   0.1666667  -0.1666667  -0.1666667), wk =   0.1481481
        k(    8) = (  -0.1666667   0.1666667   0.5000000), wk =   0.1481481
        k(    9) = (  -0.5000000  -0.1666667   0.1666667), wk =   0.1481481
        k(   10) = (   0.5000000  -0.1666667  -0.1666667), wk =   0.1481481
        k(   11) = (  -0.1666667  -0.5000000   0.1666667), wk =   0.1481481
        k(   12) = (  -0.1666667   0.5000000  -0.1666667), wk =   0.1481481
        k(   13) = (  -0.5000000   0.1666667   0.5000000), wk =   0.1481481
        k(   14) = (  -0.5000000   0.5000000   0.1666667), wk =   0.1481481

     Dense  grid:    66299 G-vectors     FFT dimensions: (  54,  54,  54)

     Smooth grid:    42931 G-vectors     FFT dimensions: (  45,  45,  45)

     Estimated max dynamical RAM per process >      17.27 MB

     Estimated total dynamical RAM >     345.48 MB

     Check: negative/imaginary core charge=   -0.000002    0.000000

     Initial potential from superposition of free atoms

     starting charge   71.99847, renormalised to   72.00000
     Starting wfcs are   40 randomized atomic wfcs +    3 random wfcs
     Checking if some PAW data can be deallocated... 

     total cpu time spent up to now is        1.3 secs

     Self-consistent Calculation

     iteration #  1     ecut=    86.00 Ry     beta= 0.10
     Davidson diagonalization with overlap
     ethr =  1.00E-02,  avg # of iterations =  3.0

     Threshold (ethr) on eigenvalues was too large:
     Diagonalizing with lowered threshold

     Davidson diagonalization with overlap
     ethr =  4.65E-05,  avg # of iterations =  2.9

     total cpu time spent up to now is        2.7 secs

     total energy              =   -2048.12107522 Ry
     Harris-Foulkes estimate   =   -2048.12534195 Ry
     estimated scf accuracy    <       0.03205964 Ry

     iteration #  2     ecut=    86.00 Ry     beta= 0.10
     Davidson diagonalization with overlap
     ethr =  4.45E-05,  avg # of iterations =  1.0

     total cpu time spent up to now is        3.3 secs

     total energy              =   -2048.11479854 Ry
     Harris-Foulkes estimate   =   -2048.12153808 Ry
     estimated scf accuracy    <       0.01876464 Ry

     iteration #  3     ecut=    86.00 Ry     beta= 0.10
     Davidson diagonalization with overlap
     ethr =  2.61E-05,  avg # of iterations =  2.0

     total cpu time spent up to now is        4.0 secs

     total energy              =   -2048.11663681 Ry
     Harris-Foulkes estimate   =   -2048.11695362 Ry
     estimated scf accuracy    <       0.00274860 Ry

     iteration #  4     ecut=    86.00 Ry     beta= 0.10
     Davidson diagonalization with overlap
     ethr =  3.82E-06,  avg # of iterations =  1.1

     total cpu time spent up to now is        4.6 secs

     total energy              =   -2048.11604807 Ry
     Harris-Foulkes estimate   =   -2048.11669706 Ry
     estimated scf accuracy    <       0.00180913 Ry

     iteration #  5     ecut=    86.00 Ry     beta= 0.10
     Davidson diagonalization with overlap
     ethr =  2.51E-06,  avg # of iterations =  2.0

     total cpu time spent up to now is        5.2 secs

     total energy              =   -2048.11617620 Ry
     Harris-Foulkes estimate   =   -2048.11618217 Ry
     estimated scf accuracy    <       0.00002286 Ry

     iteration #  6     ecut=    86.00 Ry     beta= 0.10
     Davidson diagonalization with overlap
     ethr =  3.17E-08,  avg # of iterations =  3.0

     total cpu time spent up to now is        6.2 secs

     total energy              =   -2048.11618144 Ry
     Harris-Foulkes estimate   =   -2048.11618263 Ry
     estimated scf accuracy    <       0.00001173 Ry

     iteration #  7     ecut=    86.00 Ry     beta= 0.10
     Davidson diagonalization with overlap
     ethr =  1.63E-08,  avg # of iterations =  1.0

     total cpu time spent up to now is        6.8 secs

     total energy              =   -2048.11617813 Ry
     Harris-Foulkes estimate   =   -2048.11618153 Ry
     estimated scf accuracy    <       0.00000927 Ry

     iteration #  8     ecut=    86.00 Ry     beta= 0.10
     Davidson diagonalization with overlap
     ethr =  1.29E-08,  avg # of iterations =  2.5

     total cpu time spent up to now is        7.5 secs

     End of self-consistent calculation

          k = 0.1667 0.1667 0.1667 (  5335 PWs)   bands (ev):

   -64.3224 -64.2681 -64.2678 -64.2675 -30.1685 -30.1685 -30.1684 -30.0002
   -29.9997 -29.9988 -29.9515 -29.9514 -29.9511 -29.9252 -29.8357 -29.8357
    13.7056  14.9668  14.9677  14.9689  15.3428  15.3448  15.3469  16.8032
    17.2900  17.2900  18.4387  18.4399  18.4409  18.5790  18.5791  19.0272
    19.0274  19.0275  19.9913  19.9917  19.9920  23.7565  23.7573  23.7582
    30.7296  30.7315  30.7335

          k = 0.1667 0.1667-0.5000 (  5352 PWs)   bands (ev):

   -64.2952 -64.2949 -64.2678 -64.2677 -30.1421 -30.1421 -30.0729 -30.0724
   -30.0404 -30.0403 -29.9395 -29.9395 -29.8947 -29.8946 -29.8939 -29.8933
    15.1642  15.1646  15.8986  15.8986  15.9902  15.9902  16.2410  16.2462
    16.9168  16.9168  17.2165  17.2233  17.8771  17.8795  18.3652  18.3652
    19.4555  19.4564  19.4883  19.4930  19.7617  19.7617  26.3705  26.3705
    27.5750  27.5750  33.6123

          k = 0.1667-0.5000-0.5000 (  5352 PWs)   bands (ev):

   -64.2817 -64.2816 -64.2812 -64.2809 -30.1586 -30.1585 -30.1584 -30.1584
   -29.9545 -29.9543 -29.9535 -29.9533 -29.8805 -29.8805 -29.8800 -29.8798
    15.3408  15.3412  15.3425  15.3428  16.7072  16.7082  16.7114  16.7125
    17.5605  17.5612  17.5637  17.5653  17.5674  17.5692  17.5704  17.5708
    19.0756  19.0769  19.0816  19.0829  22.0926  22.0941  22.0980  22.0993
    29.9113  29.9117  29.9121

          k =-0.5000-0.5000-0.5000 (  5400 PWs)   bands (ev):

   -64.2817 -64.2815 -64.2812 -64.2809 -30.2324 -30.2324 -30.2324 -30.2323
   -29.8803 -29.8803 -29.8802 -29.8802 -29.8800 -29.8799 -29.8799 -29.8798
    14.5885  14.5886  14.5887  14.5888  16.9862  16.9863  16.9863  16.9864
    16.9864  16.9864  16.9865  16.9866  19.8458  19.8459  19.8459  19.8459
    19.8460  19.8460  19.8460  19.8461  20.9442  20.9444  20.9448  20.9450
    27.2338  27.2339  27.2342

          k =-0.1667-0.1667 0.1667 (  5335 PWs)   bands (ev):

   -64.3224 -64.2681 -64.2678 -64.2675 -30.1685 -30.1685 -30.1684 -30.0002
   -29.9997 -29.9990 -29.9515 -29.9512 -29.9511 -29.9252 -29.8357 -29.8357
    13.7056  14.9670  14.9678  14.9687  15.3432  15.3448  15.3464  16.8031
    17.2900  17.2901  18.4389  18.4398  18.4407  18.5791  18.5791  19.0272
    19.0274  19.0275  19.9914  19.9917  19.9920  23.7566  23.7573  23.7580
    30.7300  30.7315  30.7331

          k =-0.1667 0.1667-0.1667 (  5335 PWs)   bands (ev):

   -64.3224 -64.2681 -64.2678 -64.2675 -30.1685 -30.1685 -30.1684 -30.0002
   -29.9996 -29.9992 -29.9515 -29.9513 -29.9511 -29.9253 -29.8357 -29.8357
    13.7056  14.9672  14.9679  14.9684  15.3436  15.3448  15.3460  16.8031
    17.2900  17.2901  18.4391  18.4398  18.4404  18.5791  18.5791  19.0272
    19.0273  19.0275  19.9915  19.9917  19.9920  23.7568  23.7574  23.7578
    30.7304  30.7316  30.7327

          k = 0.1667-0.1667-0.1667 (  5335 PWs)   bands (ev):

   -64.3224 -64.2681 -64.2678 -64.2675 -30.1685 -30.1685 -30.1684 -30.0001
   -29.9996 -29.9991 -29.9515 -29.9513 -29.9511 -29.9252 -29.8357 -29.8357
    13.7056  14.9671  14.9678  14.9686  15.3433  15.3448  15.3462  16.8031
    17.2900  17.2901  18.4390  18.4398  18.4406  18.5790  18.5791  19.0272
    19.0273  19.0275  19.9914  19.9917  19.9920  23.7567  23.7573  23.7580
    30.7302  30.7315  30.7329

          k =-0.1667 0.1667 0.5000 (  5352 PWs)   bands (ev):

   -64.2952 -64.2949 -64.2678 -64.2677 -30.1421 -30.1420 -30.0729 -30.0724
   -30.0404 -30.0404 -29.9395 -29.9395 -29.8947 -29.8946 -29.8939 -29.8932
    15.1642  15.1646  15.8986  15.8987  15.9902  15.9902  16.2409  16.2462
    16.9167  16.9168  17.2165  17.2234  17.8771  17.8795  18.3651  18.3652
    19.4556  19.4564  19.4883  19.4929  19.7617  19.7618  26.3705  26.3705
    27.5749  27.5750  33.6123

          k =-0.5000-0.1667 0.1667 (  5352 PWs)   bands (ev):

   -64.2953 -64.2948 -64.2680 -64.2675 -30.1421 -30.1421 -30.0728 -30.0725
   -30.0405 -30.0403 -29.9397 -29.9393 -29.8946 -29.8946 -29.8937 -29.8934
    15.1642  15.1646  15.8985  15.8988  15.9901  15.9902  16.2432  16.2439
    16.9166  16.9168  17.2195  17.2203  17.8781  17.8785  18.3650  18.3653
    19.4559  19.4561  19.4904  19.4909  19.7617  19.7618  26.3703  26.3708
    27.5748  27.5751  33.6123

          k = 0.5000-0.1667-0.1667 (  5352 PWs)   bands (ev):

   -64.2953 -64.2948 -64.2680 -64.2675 -30.1422 -30.1421 -30.0728 -30.0725
   -30.0405 -30.0402 -29.9397 -29.9393 -29.8946 -29.8946 -29.8937 -29.8934
    15.1641  15.1646  15.8985  15.8988  15.9901  15.9903  16.2432  16.2439
    16.9167  16.9168  17.2195  17.2203  17.8781  17.8784  18.3650  18.3653
    19.4559  19.4560  19.4903  19.4909  19.7617  19.7618  26.3703  26.3708
    27.5748  27.5752  33.6120

          k =-0.1667-0.5000 0.1667 (  5352 PWs)   bands (ev):

   -64.2952 -64.2950 -64.2679 -64.2676 -30.1421 -30.1421 -30.0727 -30.0726
   -30.0405 -30.0403 -29.9396 -29.9394 -29.8946 -29.8946 -29.8937 -29.8935
    15.1643  15.1644  15.8986  15.8987  15.9902  15.9902  16.2434  16.2436
    16.9167  16.9168  17.2198  17.2201  17.8782  17.8783  18.3651  18.3652
    19.4559  19.4560  19.4905  19.4907  19.7617  19.7618  26.3705  26.3706
    27.5749  27.5750  33.6121

          k =-0.1667 0.5000-0.1667 (  5352 PWs)   bands (ev):

   -64.2952 -64.2950 -64.2679 -64.2676 -30.1421 -30.1421 -30.0727 -30.0725
   -30.0404 -30.0403 -29.9396 -29.9394 -29.8946 -29.8946 -29.8937 -29.8936
    15.1643  15.1644  15.8986  15.8987  15.9902  15.9902  16.2435  16.2437
    16.9167  16.9168  17.2198  17.2201  17.8782  17.8783  18.3651  18.3652
    19.4559  19.4560  19.4905  19.4907  19.7617  19.7617  26.3705  26.3706
    27.5749  27.5750  33.6123

          k =-0.5000 0.1667 0.5000 (  5352 PWs)   bands (ev):

   -64.2817 -64.2815 -64.2812 -64.2809 -30.1586 -30.1586 -30.1585 -30.1583
   -29.9543 -29.9542 -29.9537 -29.9534 -29.8805 -29.8803 -29.8801 -29.8799
    15.3411  15.3413  15.3421  15.3427  16.7079  16.7090  16.7108  16.7117
    17.5615  17.5618  17.5636  17.5650  17.5680  17.5682  17.5697  17.5705
    19.0763  19.0777  19.0809  19.0822  22.0938  22.0950  22.0968  22.0984
    29.9115  29.9117  29.9121

          k =-0.5000 0.5000 0.1667 (  5352 PWs)   bands (ev):

   -64.2818 -64.2815 -64.2812 -64.2809 -30.1586 -30.1585 -30.1584 -30.1583
   -29.9545 -29.9542 -29.9537 -29.9534 -29.8805 -29.8803 -29.8801 -29.8799
    15.3408  15.3414  15.3422  15.3428  16.7071  16.7086  16.7111  16.7126
    17.5606  17.5614  17.5634  17.5655  17.5679  17.5691  17.5702  17.5705
    19.0758  19.0777  19.0808  19.0827  22.0924  22.0944  22.0977  22.0996
    29.9112  29.9119  29.9121

     the Fermi energy is    19.8351 ev

!    total energy              =   -2048.11618020 Ry
     Harris-Foulkes estimate   =   -2048.11617943 Ry
     estimated scf accuracy    <       0.00000048 Ry

     total all-electron energy =    -40368.222894 Ry

     The total energy is the sum of the following terms:

     one-electron contribution =    -298.74767144 Ry
     hartree contribution      =     203.10055461 Ry
     xc contribution           =    -123.33848095 Ry
     ewald contribution        =    -808.20155572 Ry
     one-center paw contrib.   =   -1020.93084476 Ry
     smearing contrib. (-TS)   =       0.00181806 Ry

     convergence has been achieved in   8 iterations

     Forces acting on atoms (cartesian axes, Ry/au):

     atom    1 type  1   force =     0.00012490    0.00003715    0.00055986
     atom    2 type  1   force =    -0.00035045    0.00063384    0.00051134
     atom    3 type  1   force =     0.00018192   -0.00009106   -0.00067297
     atom    4 type  1   force =     0.00004363   -0.00057993   -0.00039823

     Total force =     0.001452     Total SCF correction =     0.000784
     SCF correction compared to forces is large: reduce conv_thr to get better values


     Computing stress (Cartesian axis) and pressure

          total   stress  (Ry/bohr**3)                   (kbar)     P=   58.70
   0.00039870   0.00000041   0.00000006         58.65      0.06      0.01
   0.00000041   0.00039948   0.00000056          0.06     58.76      0.08
   0.00000006   0.00000056   0.00039887          0.01      0.08     58.68


     Writing output data file pd_fcc_1.save/
 
     init_run     :      0.32s CPU      0.41s WALL (       1 calls)
     electrons    :      5.94s CPU      6.18s WALL (       1 calls)
     forces       :      0.07s CPU      0.07s WALL (       1 calls)
     stress       :      0.17s CPU      0.17s WALL (       1 calls)

     Called by init_run:
     wfcinit      :      0.16s CPU      0.18s WALL (       1 calls)
     potinit      :      0.09s CPU      0.09s WALL (       1 calls)
     hinit0       :      0.04s CPU      0.05s WALL (       1 calls)

     Called by electrons:
     c_bands      :      4.57s CPU      4.71s WALL (       9 calls)
     sum_band     :      0.78s CPU      0.83s WALL (       9 calls)
     v_of_rho     :      0.06s CPU      0.06s WALL (       9 calls)
     newd         :      0.10s CPU      0.12s WALL (       9 calls)
     PAW_pot      :      0.50s CPU      0.53s WALL (       9 calls)
     mix_rho      :      0.01s CPU      0.01s WALL (       9 calls)

     Called by c_bands:
     init_us_2    :      0.04s CPU      0.04s WALL (     294 calls)
     cegterg      :      4.36s CPU      4.50s WALL (     126 calls)

     Called by sum_band:
     sum_band:bec :      0.01s CPU      0.01s WALL (     126 calls)
     addusdens    :      0.10s CPU      0.12s WALL (       9 calls)

     Called by *egterg:
     h_psi        :      3.01s CPU      3.16s WALL (     400 calls)
     s_psi        :      0.06s CPU      0.06s WALL (     400 calls)
     g_psi        :      0.02s CPU      0.02s WALL (     260 calls)
     cdiaghg      :      0.99s CPU      0.99s WALL (     372 calls)

     Called by h_psi:
     h_psi:pot    :      3.00s CPU      3.14s WALL (     400 calls)
     h_psi:calbec :      0.14s CPU      0.14s WALL (     400 calls)
     vloc_psi     :      2.79s CPU      2.92s WALL (     400 calls)
     add_vuspsi   :      0.07s CPU      0.07s WALL (     400 calls)

     General routines
     calbec       :      0.21s CPU      0.22s WALL (     596 calls)
     fft          :      0.08s CPU      0.08s WALL (     142 calls)
     ffts         :      0.00s CPU      0.00s WALL (      18 calls)
     fftw         :      3.14s CPU      3.28s WALL (   31276 calls)
     interpolate  :      0.01s CPU      0.01s WALL (       9 calls)
 
     Parallel routines
     fft_scatt_xy :      0.29s CPU      0.31s WALL (   31436 calls)
     fft_scatt_yz :      1.71s CPU      1.80s WALL (   31436 calls)
 
     PWSCF        :     7.50s CPU         7.94s WALL

 
   This run was terminated on:  18:35:51  31Mar2020            

=------------------------------------------------------------------------------=
   JOB DONE.
=------------------------------------------------------------------------------=
