
     Program PWSCF v.6.3 starts on 31Mar2020 at 18: 8:51 

     This program is part of the open-source Quantum ESPRESSO suite
     for quantum simulation of materials; please cite
         "P. Giannozzi et al., J. Phys.:Condens. Matter 21 395502 (2009);
         "P. Giannozzi et al., J. Phys.:Condens. Matter 29 465901 (2017);
          URL http://www.quantum-espresso.org", 
     in publications or presentations arising from this work. More details at
     http://www.quantum-espresso.org/quote

     Parallel version (MPI & OpenMP), running on      20 processor cores
     Number of MPI processes:                20
     Threads/MPI process:                     1

     MPI processes distributed on     1 nodes
     R & G space division:  proc/nbgrp/npool/nimage =      20
     Reading input from wd/ecut/file_000002.in
Warning: card &IONS ignored
Warning: card ION_DYNAMICS = 'BFGS', ignored
Warning: card / ignored
Warning: card &CELL ignored
Warning: card CELL_DYNAMICS = 'BFGS', ignored
Warning: card CELL_FACTOR = 2.0, ignored
Warning: card PRESS = 0.0, ignored
Warning: card / ignored

     Current dimensions of program PWSCF are:
     Max number of different atomic species (ntypx) = 10
     Max number of k-points (npk) =  40000
     Max angular momentum in pseudopotentials (lmaxx) =  3
               file Pd.pbe-spn-kjpaw_psl.1.0.0.UPF: wavefunction(s)  4S 5S 4D renormalized

     Subspace diagonalization in iterative solution of the eigenvalue problem:
     a serial algorithm will be used

 
     Parallelization info
     --------------------
     sticks:   dense  smooth     PW     G-vecs:    dense   smooth      PW
     Min          64      64     18                 1743     1743     272
     Max          66      66     19                 1747     1747     277
     Sum        1305    1305    373                34889    34889    5497
 


     bravais-lattice index     =            0
     lattice parameter (alat)  =       7.3521  a.u.
     unit-cell volume          =     397.4058 (a.u.)^3
     number of atoms/cell      =            4
     number of atomic types    =            1
     number of electrons       =        72.00
     number of Kohn-Sham states=           43
     kinetic-energy cutoff     =      75.0000  Ry
     charge density cutoff     =     300.0000  Ry
     convergence threshold     =      1.0E-06
     mixing beta               =       0.1000
     number of iterations used =           10  plain     mixing
     Exchange-correlation      = SLA PW PBX PBC ( 1  4  3  4 0 0)

     celldm(1)=   7.352100  celldm(2)=   0.000000  celldm(3)=   0.000000
     celldm(4)=   0.000000  celldm(5)=   0.000000  celldm(6)=   0.000000

     crystal axes: (cart. coord. in units of alat)
               a(1) = (   1.000000   0.000000   0.000000 )  
               a(2) = (   0.000000   1.000000   0.000000 )  
               a(3) = (   0.000000   0.000000   1.000000 )  

     reciprocal axes: (cart. coord. in units 2 pi/alat)
               b(1) = (  1.000000  0.000000  0.000000 )  
               b(2) = (  0.000000  1.000000  0.000000 )  
               b(3) = (  0.000000  0.000000  1.000000 )  


     PseudoPot. # 1 for Pd read from file:
     /rds/homes/b/bxp912/pp/Pd.pbe-spn-kjpaw_psl.1.0.0.UPF
     MD5 check sum: 790f2ebce206edfd9790dcb9844eca51
     Pseudo is Projector augmented-wave + core cor, Zval = 18.0
     Generated using "atomic" code by A. Dal Corso v.6.3
     Shape of augmentation charge: PSQ
     Using radial grid of 1235 points,  6 beta functions with: 
                l(1) =   0
                l(2) =   0
                l(3) =   1
                l(4) =   1
                l(5) =   2
                l(6) =   2
     Q(r) pseudized with 0 coefficients 


     atomic species   valence    mass     pseudopotential
        Pd            18.00   106.42000     Pd( 1.00)

     No symmetry found



   Cartesian axes

     site n.     atom                  positions (alat units)
         1           Pd  tau(   1) = (  -0.0000679   0.0000198   0.0001413  )
         2           Pd  tau(   2) = (   0.5001653   0.4996054   0.0001461  )
         3           Pd  tau(   3) = (   0.4998071   0.0000633   0.5006138  )
         4           Pd  tau(   4) = (  -0.0000415   0.5004543   0.5003815  )

     number of k points=    14  Marzari-Vanderbilt smearing, width (Ry)=  0.0200
                       cart. coord. in units 2pi/alat
        k(    1) = (   0.1666667   0.1666667   0.1666667), wk =   0.1481481
        k(    2) = (   0.1666667   0.1666667  -0.5000000), wk =   0.1481481
        k(    3) = (   0.1666667  -0.5000000  -0.5000000), wk =   0.1481481
        k(    4) = (  -0.5000000  -0.5000000  -0.5000000), wk =   0.0740741
        k(    5) = (  -0.1666667  -0.1666667   0.1666667), wk =   0.1481481
        k(    6) = (  -0.1666667   0.1666667  -0.1666667), wk =   0.1481481
        k(    7) = (   0.1666667  -0.1666667  -0.1666667), wk =   0.1481481
        k(    8) = (  -0.1666667   0.1666667   0.5000000), wk =   0.1481481
        k(    9) = (  -0.5000000  -0.1666667   0.1666667), wk =   0.1481481
        k(   10) = (   0.5000000  -0.1666667  -0.1666667), wk =   0.1481481
        k(   11) = (  -0.1666667  -0.5000000   0.1666667), wk =   0.1481481
        k(   12) = (  -0.1666667   0.5000000  -0.1666667), wk =   0.1481481
        k(   13) = (  -0.5000000   0.1666667   0.5000000), wk =   0.1481481
        k(   14) = (  -0.5000000   0.5000000   0.1666667), wk =   0.1481481

     Dense  grid:    34889 G-vectors     FFT dimensions: (  45,  45,  45)

     Estimated max dynamical RAM per process >      10.60 MB

     Estimated total dynamical RAM >     211.96 MB

     Check: negative/imaginary core charge=   -0.000007    0.000000

     Initial potential from superposition of free atoms

     starting charge   71.99847, renormalised to   72.00000
     Starting wfcs are   40 randomized atomic wfcs +    3 random wfcs
     Checking if some PAW data can be deallocated... 

     total cpu time spent up to now is        1.3 secs

     Self-consistent Calculation

     iteration #  1     ecut=    75.00 Ry     beta= 0.10
     Davidson diagonalization with overlap
     ethr =  1.00E-02,  avg # of iterations =  3.0

     Threshold (ethr) on eigenvalues was too large:
     Diagonalizing with lowered threshold

     Davidson diagonalization with overlap
     ethr =  4.60E-05,  avg # of iterations =  2.9

     total cpu time spent up to now is        2.6 secs

     total energy              =   -2048.11667394 Ry
     Harris-Foulkes estimate   =   -2048.12092038 Ry
     estimated scf accuracy    <       0.03187543 Ry

     iteration #  2     ecut=    75.00 Ry     beta= 0.10
     Davidson diagonalization with overlap
     ethr =  4.43E-05,  avg # of iterations =  1.0

     total cpu time spent up to now is        3.6 secs

     total energy              =   -2048.11046249 Ry
     Harris-Foulkes estimate   =   -2048.11712911 Ry
     estimated scf accuracy    <       0.01861523 Ry

     iteration #  3     ecut=    75.00 Ry     beta= 0.10
     Davidson diagonalization with overlap
     ethr =  2.59E-05,  avg # of iterations =  2.0

     total cpu time spent up to now is        4.2 secs

     total energy              =   -2048.11231324 Ry
     Harris-Foulkes estimate   =   -2048.11261261 Ry
     estimated scf accuracy    <       0.00271453 Ry

     iteration #  4     ecut=    75.00 Ry     beta= 0.10
     Davidson diagonalization with overlap
     ethr =  3.77E-06,  avg # of iterations =  1.0

     total cpu time spent up to now is        4.8 secs

     total energy              =   -2048.11175669 Ry
     Harris-Foulkes estimate   =   -2048.11237279 Ry
     estimated scf accuracy    <       0.00179437 Ry

     iteration #  5     ecut=    75.00 Ry     beta= 0.10
     Davidson diagonalization with overlap
     ethr =  2.49E-06,  avg # of iterations =  2.0

     total cpu time spent up to now is        5.3 secs

     total energy              =   -2048.11187566 Ry
     Harris-Foulkes estimate   =   -2048.11188241 Ry
     estimated scf accuracy    <       0.00002194 Ry

     iteration #  6     ecut=    75.00 Ry     beta= 0.10
     Davidson diagonalization with overlap
     ethr =  3.05E-08,  avg # of iterations =  3.0

     total cpu time spent up to now is        6.1 secs

     total energy              =   -2048.11188112 Ry
     Harris-Foulkes estimate   =   -2048.11188257 Ry
     estimated scf accuracy    <       0.00001054 Ry

     iteration #  7     ecut=    75.00 Ry     beta= 0.10
     Davidson diagonalization with overlap
     ethr =  1.46E-08,  avg # of iterations =  1.0

     total cpu time spent up to now is        6.6 secs

     total energy              =   -2048.11187842 Ry
     Harris-Foulkes estimate   =   -2048.11188125 Ry
     estimated scf accuracy    <       0.00000824 Ry

     iteration #  8     ecut=    75.00 Ry     beta= 0.10
     Davidson diagonalization with overlap
     ethr =  1.14E-08,  avg # of iterations =  2.6

     total cpu time spent up to now is        7.3 secs

     End of self-consistent calculation

          k = 0.1667 0.1667 0.1667 (  4338 PWs)   bands (ev):

   -64.3203 -64.2659 -64.2657 -64.2656 -30.1657 -30.1656 -30.1656 -29.9971
   -29.9965 -29.9957 -29.9483 -29.9482 -29.9481 -29.9220 -29.8324 -29.8324
    13.7060  14.9668  14.9678  14.9689  15.3428  15.3448  15.3469  16.8032
    17.2900  17.2900  18.4388  18.4399  18.4409  18.5791  18.5792  19.0273
    19.0274  19.0275  19.9913  19.9917  19.9921  23.7568  23.7577  23.7586
    30.7303  30.7323  30.7343

          k = 0.1667 0.1667-0.5000 (  4346 PWs)   bands (ev):

   -64.2932 -64.2928 -64.2658 -64.2656 -30.1394 -30.1394 -30.0698 -30.0693
   -30.0374 -30.0373 -29.9363 -29.9362 -29.8915 -29.8914 -29.8907 -29.8900
    15.1644  15.1648  15.8987  15.8987  15.9902  15.9903  16.2410  16.2462
    16.9168  16.9168  17.2165  17.2234  17.8771  17.8795  18.3652  18.3653
    19.4556  19.4564  19.4884  19.4931  19.7617  19.7617  26.3708  26.3708
    27.5757  27.5758  33.6133

          k = 0.1667-0.5000-0.5000 (  4380 PWs)   bands (ev):

   -64.2796 -64.2794 -64.2792 -64.2791 -30.1560 -30.1559 -30.1557 -30.1557
   -29.9513 -29.9512 -29.9504 -29.9502 -29.8774 -29.8774 -29.8769 -29.8768
    15.3408  15.3412  15.3425  15.3428  16.7072  16.7082  16.7114  16.7125
    17.5606  17.5613  17.5638  17.5654  17.5675  17.5692  17.5704  17.5708
    19.0756  19.0769  19.0816  19.0829  22.0929  22.0944  22.0983  22.0996
    29.9122  29.9126  29.9129

          k =-0.5000-0.5000-0.5000 (  4272 PWs)   bands (ev):

   -64.2795 -64.2792 -64.2791 -64.2791 -30.2294 -30.2294 -30.2293 -30.2293
   -29.8767 -29.8766 -29.8766 -29.8765 -29.8764 -29.8764 -29.8764 -29.8763
    14.5886  14.5887  14.5888  14.5889  16.9863  16.9863  16.9864  16.9864
    16.9864  16.9865  16.9865  16.9866  19.8459  19.8459  19.8459  19.8460
    19.8461  19.8461  19.8461  19.8461  20.9446  20.9447  20.9451  20.9453
    27.2347  27.2348  27.2351

          k =-0.1667-0.1667 0.1667 (  4338 PWs)   bands (ev):

   -64.3203 -64.2659 -64.2657 -64.2656 -30.1657 -30.1656 -30.1656 -29.9970
   -29.9965 -29.9959 -29.9484 -29.9482 -29.9480 -29.9220 -29.8324 -29.8323
    13.7060  14.9671  14.9678  14.9687  15.3432  15.3448  15.3464  16.8031
    17.2900  17.2901  18.4390  18.4398  18.4407  18.5791  18.5792  19.0272
    19.0274  19.0275  19.9914  19.9917  19.9920  23.7570  23.7577  23.7584
    30.7307  30.7323  30.7339

          k =-0.1667 0.1667-0.1667 (  4338 PWs)   bands (ev):

   -64.3203 -64.2659 -64.2657 -64.2656 -30.1657 -30.1656 -30.1656 -29.9969
   -29.9964 -29.9961 -29.9483 -29.9482 -29.9481 -29.9220 -29.8324 -29.8323
    13.7060  14.9672  14.9679  14.9684  15.3436  15.3448  15.3460  16.8031
    17.2900  17.2901  18.4392  18.4398  18.4405  18.5791  18.5792  19.0273
    19.0274  19.0275  19.9915  19.9918  19.9920  23.7571  23.7577  23.7582
    30.7311  30.7323  30.7335

          k = 0.1667-0.1667-0.1667 (  4338 PWs)   bands (ev):

   -64.3203 -64.2659 -64.2657 -64.2656 -30.1657 -30.1656 -30.1656 -29.9970
   -29.9965 -29.9960 -29.9483 -29.9482 -29.9481 -29.9220 -29.8324 -29.8323
    13.7060  14.9671  14.9678  14.9686  15.3434  15.3448  15.3462  16.8032
    17.2900  17.2900  18.4391  18.4399  18.4406  18.5791  18.5791  19.0273
    19.0274  19.0275  19.9915  19.9917  19.9920  23.7571  23.7577  23.7583
    30.7309  30.7323  30.7337

          k =-0.1667 0.1667 0.5000 (  4346 PWs)   bands (ev):

   -64.2932 -64.2928 -64.2658 -64.2656 -30.1394 -30.1393 -30.0698 -30.0694
   -30.0374 -30.0374 -29.9363 -29.9362 -29.8915 -29.8913 -29.8907 -29.8900
    15.1644  15.1648  15.8987  15.8987  15.9902  15.9902  16.2410  16.2462
    16.9167  16.9168  17.2165  17.2234  17.8771  17.8795  18.3652  18.3652
    19.4556  19.4564  19.4884  19.4931  19.7617  19.7618  26.3708  26.3708
    27.5757  27.5757  33.6133

          k =-0.5000-0.1667 0.1667 (  4346 PWs)   bands (ev):

   -64.2931 -64.2929 -64.2658 -64.2656 -30.1394 -30.1393 -30.0697 -30.0695
   -30.0375 -30.0373 -29.9364 -29.9361 -29.8914 -29.8914 -29.8904 -29.8903
    15.1644  15.1648  15.8985  15.8988  15.9902  15.9903  16.2433  16.2440
    16.9167  16.9168  17.2195  17.2203  17.8781  17.8785  18.3651  18.3652
    19.4559  19.4561  19.4905  19.4910  19.7617  19.7618  26.3706  26.3711
    27.5755  27.5759  33.6132

          k = 0.5000-0.1667-0.1667 (  4346 PWs)   bands (ev):

   -64.2931 -64.2929 -64.2658 -64.2656 -30.1394 -30.1393 -30.0697 -30.0695
   -30.0374 -30.0373 -29.9364 -29.9361 -29.8914 -29.8914 -29.8905 -29.8903
    15.1644  15.1648  15.8985  15.8988  15.9902  15.9903  16.2433  16.2440
    16.9167  16.9169  17.2195  17.2203  17.8781  17.8784  18.3651  18.3653
    19.4559  19.4561  19.4905  19.4910  19.7617  19.7618  26.3706  26.3711
    27.5755  27.5759  33.6130

          k =-0.1667-0.5000 0.1667 (  4346 PWs)   bands (ev):

   -64.2931 -64.2930 -64.2657 -64.2656 -30.1394 -30.1393 -30.0696 -30.0696
   -30.0374 -30.0374 -29.9363 -29.9362 -29.8914 -29.8914 -29.8904 -29.8904
    15.1645  15.1647  15.8987  15.8987  15.9902  15.9903  16.2435  16.2437
    16.9167  16.9168  17.2198  17.2201  17.8782  17.8783  18.3652  18.3652
    19.4560  19.4560  19.4907  19.4908  19.7617  19.7618  26.3707  26.3709
    27.5757  27.5758  33.6132

          k =-0.1667 0.5000-0.1667 (  4346 PWs)   bands (ev):

   -64.2931 -64.2930 -64.2657 -64.2656 -30.1394 -30.1394 -30.0696 -30.0695
   -30.0374 -30.0374 -29.9363 -29.9362 -29.8914 -29.8913 -29.8904 -29.8904
    15.1645  15.1647  15.8986  15.8987  15.9902  15.9903  16.2435  16.2437
    16.9167  16.9168  17.2198  17.2201  17.8782  17.8783  18.3652  18.3652
    19.4560  19.4560  19.4907  19.4908  19.7617  19.7617  26.3707  26.3709
    27.5757  27.5758  33.6133

          k =-0.5000 0.1667 0.5000 (  4380 PWs)   bands (ev):

   -64.2796 -64.2793 -64.2792 -64.2791 -30.1559 -30.1559 -30.1558 -30.1557
   -29.9511 -29.9510 -29.9506 -29.9503 -29.8774 -29.8772 -29.8770 -29.8769
    15.3411  15.3413  15.3422  15.3428  16.7079  16.7090  16.7108  16.7117
    17.5616  17.5619  17.5637  17.5651  17.5680  17.5682  17.5697  17.5705
    19.0763  19.0777  19.0809  19.0821  22.0941  22.0952  22.0971  22.0987
    29.9123  29.9123  29.9129

          k =-0.5000 0.5000 0.1667 (  4380 PWs)   bands (ev):

   -64.2796 -64.2793 -64.2792 -64.2791 -30.1560 -30.1559 -30.1557 -30.1557
   -29.9513 -29.9510 -29.9505 -29.9502 -29.8774 -29.8773 -29.8770 -29.8768
    15.3409  15.3414  15.3423  15.3428  16.7071  16.7086  16.7111  16.7126
    17.5607  17.5615  17.5635  17.5655  17.5679  17.5691  17.5702  17.5705
    19.0758  19.0777  19.0808  19.0827  22.0926  22.0946  22.0979  22.0999
    29.9120  29.9125  29.9128

     the Fermi energy is    19.8351 ev

!    total energy              =   -2048.11187926 Ry
     Harris-Foulkes estimate   =   -2048.11187967 Ry
     estimated scf accuracy    <       0.00000050 Ry

     total all-electron energy =    -40368.218593 Ry

     The total energy is the sum of the following terms:

     one-electron contribution =    -298.73594628 Ry
     hartree contribution      =     203.09580420 Ry
     xc contribution           =    -123.33719799 Ry
     ewald contribution        =    -808.20155572 Ry
     one-center paw contrib.   =   -1020.93480058 Ry
     smearing contrib. (-TS)   =       0.00181711 Ry

     convergence has been achieved in   8 iterations

     Forces acting on atoms (cartesian axes, Ry/au):

     atom    1 type  1   force =     0.00011567    0.00002975    0.00056943
     atom    2 type  1   force =    -0.00035303    0.00064377    0.00052897
     atom    3 type  1   force =     0.00018834   -0.00008681   -0.00068998
     atom    4 type  1   force =     0.00004901   -0.00058672   -0.00040842

     Total force =     0.001480     Total SCF correction =     0.000713
     SCF correction compared to forces is large: reduce conv_thr to get better values


     Computing stress (Cartesian axis) and pressure

          total   stress  (Ry/bohr**3)                   (kbar)     P=   53.06
   0.00036046   0.00000044   0.00000003         53.03      0.06      0.00
   0.00000044   0.00036112   0.00000059          0.06     53.12      0.09
   0.00000003   0.00000059   0.00036054          0.00      0.09     53.04


     Writing output data file pd_fcc_1.save/
 
     init_run     :      0.32s CPU      0.39s WALL (       1 calls)
     electrons    :      5.66s CPU      5.95s WALL (       1 calls)
     forces       :      0.05s CPU      0.05s WALL (       1 calls)
     stress       :      0.11s CPU      0.11s WALL (       1 calls)

     Called by init_run:
     wfcinit      :      0.16s CPU      0.17s WALL (       1 calls)
     potinit      :      0.08s CPU      0.09s WALL (       1 calls)
     hinit0       :      0.06s CPU      0.08s WALL (       1 calls)

     Called by electrons:
     c_bands      :      4.40s CPU      4.61s WALL (       9 calls)
     sum_band     :      0.73s CPU      0.77s WALL (       9 calls)
     v_of_rho     :      0.03s CPU      0.04s WALL (       9 calls)
     newd         :      0.05s CPU      0.06s WALL (       9 calls)
     PAW_pot      :      0.50s CPU      0.53s WALL (       9 calls)
     mix_rho      :      0.01s CPU      0.01s WALL (       9 calls)

     Called by c_bands:
     init_us_2    :      0.03s CPU      0.04s WALL (     294 calls)
     cegterg      :      4.23s CPU      4.43s WALL (     126 calls)

     Called by sum_band:
     sum_band:bec :      0.00s CPU      0.00s WALL (     126 calls)
     addusdens    :      0.05s CPU      0.06s WALL (       9 calls)

     Called by *egterg:
     h_psi        :      2.86s CPU      3.04s WALL (     400 calls)
     s_psi        :      0.05s CPU      0.05s WALL (     400 calls)
     g_psi        :      0.01s CPU      0.01s WALL (     260 calls)
     cdiaghg      :      1.00s CPU      1.03s WALL (     372 calls)

     Called by h_psi:
     h_psi:pot    :      2.84s CPU      3.02s WALL (     400 calls)
     h_psi:calbec :      0.14s CPU      0.18s WALL (     400 calls)
     vloc_psi     :      2.64s CPU      2.78s WALL (     400 calls)
     add_vuspsi   :      0.06s CPU      0.06s WALL (     400 calls)

     General routines
     calbec       :      0.21s CPU      0.25s WALL (     596 calls)
     fft          :      0.05s CPU      0.05s WALL (     126 calls)
     ffts         :      0.01s CPU      0.01s WALL (       9 calls)
     fftw         :      3.00s CPU      3.15s WALL (   31260 calls)
 
     Parallel routines
     fft_scatt_xy :      0.28s CPU      0.30s WALL (   31395 calls)
     fft_scatt_yz :      1.63s CPU      1.72s WALL (   31395 calls)
 
     PWSCF        :     7.15s CPU         7.61s WALL

 
   This run was terminated on:  18: 8:59  31Mar2020            

=------------------------------------------------------------------------------=
   JOB DONE.
=------------------------------------------------------------------------------=
