
     Program PWSCF v.6.3 starts on 31Mar2020 at 18:30: 7 

     This program is part of the open-source Quantum ESPRESSO suite
     for quantum simulation of materials; please cite
         "P. Giannozzi et al., J. Phys.:Condens. Matter 21 395502 (2009);
         "P. Giannozzi et al., J. Phys.:Condens. Matter 29 465901 (2017);
          URL http://www.quantum-espresso.org", 
     in publications or presentations arising from this work. More details at
     http://www.quantum-espresso.org/quote

     Parallel version (MPI & OpenMP), running on      20 processor cores
     Number of MPI processes:                20
     Threads/MPI process:                     1

     MPI processes distributed on     1 nodes
     R & G space division:  proc/nbgrp/npool/nimage =      20
     Reading input from wd/ecut/file_000107.in
Warning: card &IONS ignored
Warning: card ION_DYNAMICS = 'BFGS', ignored
Warning: card / ignored
Warning: card &CELL ignored
Warning: card CELL_DYNAMICS = 'BFGS', ignored
Warning: card CELL_FACTOR = 2.0, ignored
Warning: card PRESS = 0.0, ignored
Warning: card / ignored

     Current dimensions of program PWSCF are:
     Max number of different atomic species (ntypx) = 10
     Max number of k-points (npk) =  40000
     Max angular momentum in pseudopotentials (lmaxx) =  3
               file Pd.pbe-spn-kjpaw_psl.1.0.0.UPF: wavefunction(s)  4S 5S 4D renormalized

     Subspace diagonalization in iterative solution of the eigenvalue problem:
     a serial algorithm will be used

 
     Parallelization info
     --------------------
     sticks:   dense  smooth     PW     G-vecs:    dense   smooth      PW
     Min          99      99     29                 3314     3314     551
     Max         101     101     30                 3315     3315     556
     Sum        1993    1993    593                66299    66299   11067
 


     bravais-lattice index     =            0
     lattice parameter (alat)  =       7.3521  a.u.
     unit-cell volume          =     397.4058 (a.u.)^3
     number of atoms/cell      =            4
     number of atomic types    =            1
     number of electrons       =        72.00
     number of Kohn-Sham states=           43
     kinetic-energy cutoff     =     122.0000  Ry
     charge density cutoff     =     460.0000  Ry
     convergence threshold     =      1.0E-06
     mixing beta               =       0.1000
     number of iterations used =           10  plain     mixing
     Exchange-correlation      = SLA PW PBX PBC ( 1  4  3  4 0 0)

     celldm(1)=   7.352100  celldm(2)=   0.000000  celldm(3)=   0.000000
     celldm(4)=   0.000000  celldm(5)=   0.000000  celldm(6)=   0.000000

     crystal axes: (cart. coord. in units of alat)
               a(1) = (   1.000000   0.000000   0.000000 )  
               a(2) = (   0.000000   1.000000   0.000000 )  
               a(3) = (   0.000000   0.000000   1.000000 )  

     reciprocal axes: (cart. coord. in units 2 pi/alat)
               b(1) = (  1.000000  0.000000  0.000000 )  
               b(2) = (  0.000000  1.000000  0.000000 )  
               b(3) = (  0.000000  0.000000  1.000000 )  


     PseudoPot. # 1 for Pd read from file:
     /rds/homes/b/bxp912/pp/Pd.pbe-spn-kjpaw_psl.1.0.0.UPF
     MD5 check sum: 790f2ebce206edfd9790dcb9844eca51
     Pseudo is Projector augmented-wave + core cor, Zval = 18.0
     Generated using "atomic" code by A. Dal Corso v.6.3
     Shape of augmentation charge: PSQ
     Using radial grid of 1235 points,  6 beta functions with: 
                l(1) =   0
                l(2) =   0
                l(3) =   1
                l(4) =   1
                l(5) =   2
                l(6) =   2
     Q(r) pseudized with 0 coefficients 


     atomic species   valence    mass     pseudopotential
        Pd            18.00   106.42000     Pd( 1.00)

     No symmetry found



   Cartesian axes

     site n.     atom                  positions (alat units)
         1           Pd  tau(   1) = (  -0.0000679   0.0000198   0.0001413  )
         2           Pd  tau(   2) = (   0.5001653   0.4996054   0.0001461  )
         3           Pd  tau(   3) = (   0.4998071   0.0000633   0.5006138  )
         4           Pd  tau(   4) = (  -0.0000415   0.5004543   0.5003815  )

     number of k points=    14  Marzari-Vanderbilt smearing, width (Ry)=  0.0200
                       cart. coord. in units 2pi/alat
        k(    1) = (   0.1666667   0.1666667   0.1666667), wk =   0.1481481
        k(    2) = (   0.1666667   0.1666667  -0.5000000), wk =   0.1481481
        k(    3) = (   0.1666667  -0.5000000  -0.5000000), wk =   0.1481481
        k(    4) = (  -0.5000000  -0.5000000  -0.5000000), wk =   0.0740741
        k(    5) = (  -0.1666667  -0.1666667   0.1666667), wk =   0.1481481
        k(    6) = (  -0.1666667   0.1666667  -0.1666667), wk =   0.1481481
        k(    7) = (   0.1666667  -0.1666667  -0.1666667), wk =   0.1481481
        k(    8) = (  -0.1666667   0.1666667   0.5000000), wk =   0.1481481
        k(    9) = (  -0.5000000  -0.1666667   0.1666667), wk =   0.1481481
        k(   10) = (   0.5000000  -0.1666667  -0.1666667), wk =   0.1481481
        k(   11) = (  -0.1666667  -0.5000000   0.1666667), wk =   0.1481481
        k(   12) = (  -0.1666667   0.5000000  -0.1666667), wk =   0.1481481
        k(   13) = (  -0.5000000   0.1666667   0.5000000), wk =   0.1481481
        k(   14) = (  -0.5000000   0.5000000   0.1666667), wk =   0.1481481

     Dense  grid:    66299 G-vectors     FFT dimensions: (  54,  54,  54)

     Estimated max dynamical RAM per process >      19.31 MB

     Estimated total dynamical RAM >     386.14 MB

     Check: negative/imaginary core charge=   -0.000002    0.000000

     Initial potential from superposition of free atoms

     starting charge   71.99847, renormalised to   72.00000
     Starting wfcs are   40 randomized atomic wfcs +    3 random wfcs
     Checking if some PAW data can be deallocated... 

     total cpu time spent up to now is        1.4 secs

     Self-consistent Calculation

     iteration #  1     ecut=   122.00 Ry     beta= 0.10
     Davidson diagonalization with overlap
     ethr =  1.00E-02,  avg # of iterations =  3.0

     Threshold (ethr) on eigenvalues was too large:
     Diagonalizing with lowered threshold

     Davidson diagonalization with overlap
     ethr =  4.67E-05,  avg # of iterations =  2.9

     total cpu time spent up to now is        3.4 secs

     total energy              =   -2048.12450652 Ry
     Harris-Foulkes estimate   =   -2048.12877593 Ry
     estimated scf accuracy    <       0.03208068 Ry

     iteration #  2     ecut=   122.00 Ry     beta= 0.10
     Davidson diagonalization with overlap
     ethr =  4.46E-05,  avg # of iterations =  1.0

     total cpu time spent up to now is        4.2 secs

     total energy              =   -2048.11822737 Ry
     Harris-Foulkes estimate   =   -2048.12497562 Ry
     estimated scf accuracy    <       0.01878069 Ry

     iteration #  3     ecut=   122.00 Ry     beta= 0.10
     Davidson diagonalization with overlap
     ethr =  2.61E-05,  avg # of iterations =  2.0

     total cpu time spent up to now is        5.1 secs

     total energy              =   -2048.12005399 Ry
     Harris-Foulkes estimate   =   -2048.12037690 Ry
     estimated scf accuracy    <       0.00275274 Ry

     iteration #  4     ecut=   122.00 Ry     beta= 0.10
     Davidson diagonalization with overlap
     ethr =  3.82E-06,  avg # of iterations =  1.1

     total cpu time spent up to now is        5.8 secs

     total energy              =   -2048.11946115 Ry
     Harris-Foulkes estimate   =   -2048.12011535 Ry
     estimated scf accuracy    <       0.00180581 Ry

     iteration #  5     ecut=   122.00 Ry     beta= 0.10
     Davidson diagonalization with overlap
     ethr =  2.51E-06,  avg # of iterations =  2.0

     total cpu time spent up to now is        6.8 secs

     total energy              =   -2048.11959126 Ry
     Harris-Foulkes estimate   =   -2048.11959735 Ry
     estimated scf accuracy    <       0.00002280 Ry

     iteration #  6     ecut=   122.00 Ry     beta= 0.10
     Davidson diagonalization with overlap
     ethr =  3.17E-08,  avg # of iterations =  3.3

     total cpu time spent up to now is        8.0 secs

     total energy              =   -2048.11959737 Ry
     Harris-Foulkes estimate   =   -2048.11959867 Ry
     estimated scf accuracy    <       0.00001228 Ry

     iteration #  7     ecut=   122.00 Ry     beta= 0.10
     Davidson diagonalization with overlap
     ethr =  1.71E-08,  avg # of iterations =  1.0

     total cpu time spent up to now is        9.0 secs

     total energy              =   -2048.11959343 Ry
     Harris-Foulkes estimate   =   -2048.11959743 Ry
     estimated scf accuracy    <       0.00001020 Ry

     iteration #  8     ecut=   122.00 Ry     beta= 0.10
     Davidson diagonalization with overlap
     ethr =  1.42E-08,  avg # of iterations =  2.7

     total cpu time spent up to now is       10.2 secs

     End of self-consistent calculation

          k = 0.1667 0.1667 0.1667 (  9048 PWs)   bands (ev):

   -64.3227 -64.2685 -64.2682 -64.2678 -30.1693 -30.1693 -30.1692 -30.0011
   -30.0005 -29.9996 -29.9523 -29.9521 -29.9519 -29.9259 -29.8364 -29.8364
    13.7053  14.9664  14.9673  14.9684  15.3423  15.3443  15.3464  16.8027
    17.2895  17.2895  18.4382  18.4394  18.4404  18.5784  18.5785  19.0266
    19.0269  19.0269  19.9907  19.9911  19.9915  23.7560  23.7569  23.7578
    30.7290  30.7309  30.7330

          k = 0.1667 0.1667-0.5000 (  9052 PWs)   bands (ev):

   -64.2956 -64.2953 -64.2682 -64.2681 -30.1430 -30.1429 -30.0737 -30.0732
   -30.0412 -30.0411 -29.9402 -29.9402 -29.8954 -29.8953 -29.8946 -29.8940
    15.1638  15.1642  15.8981  15.8981  15.9897  15.9898  16.2405  16.2457
    16.9163  16.9163  17.2160  17.2228  17.8766  17.8789  18.3646  18.3646
    19.4549  19.4558  19.4878  19.4925  19.7611  19.7612  26.3701  26.3701
    27.5744  27.5744  33.6116

          k = 0.1667-0.5000-0.5000 (  9024 PWs)   bands (ev):

   -64.2822 -64.2820 -64.2815 -64.2813 -30.1595 -30.1594 -30.1592 -30.1592
   -29.9553 -29.9551 -29.9542 -29.9541 -29.8812 -29.8812 -29.8807 -29.8805
    15.3403  15.3407  15.3421  15.3424  16.7067  16.7077  16.7109  16.7120
    17.5600  17.5607  17.5632  17.5648  17.5669  17.5687  17.5699  17.5703
    19.0750  19.0764  19.0810  19.0824  22.0922  22.0936  22.0975  22.0988
    29.9108  29.9110  29.9115

          k =-0.5000-0.5000-0.5000 (  9104 PWs)   bands (ev):

   -64.2821 -64.2819 -64.2815 -64.2812 -30.2332 -30.2332 -30.2332 -30.2331
   -29.8810 -29.8810 -29.8809 -29.8809 -29.8806 -29.8806 -29.8806 -29.8805
    14.5881  14.5882  14.5883  14.5884  16.9857  16.9858  16.9858  16.9859
    16.9859  16.9859  16.9860  16.9860  19.8453  19.8453  19.8453  19.8454
    19.8454  19.8454  19.8455  19.8455  20.9439  20.9440  20.9445  20.9447
    27.2332  27.2333  27.2336

          k =-0.1667-0.1667 0.1667 (  9048 PWs)   bands (ev):

   -64.3227 -64.2685 -64.2682 -64.2679 -30.1693 -30.1693 -30.1692 -30.0010
   -30.0005 -29.9998 -29.9523 -29.9520 -29.9519 -29.9260 -29.8364 -29.8364
    13.7053  14.9666  14.9673  14.9682  15.3427  15.3443  15.3460  16.8026
    17.2895  17.2895  18.4384  18.4393  18.4402  18.5785  18.5785  19.0266
    19.0268  19.0269  19.9908  19.9911  19.9914  23.7562  23.7569  23.7576
    30.7294  30.7310  30.7326

          k =-0.1667 0.1667-0.1667 (  9048 PWs)   bands (ev):

   -64.3227 -64.2685 -64.2682 -64.2679 -30.1693 -30.1693 -30.1692 -30.0010
   -30.0004 -30.0000 -29.9523 -29.9521 -29.9519 -29.9260 -29.8364 -29.8364
    13.7053  14.9667  14.9675  14.9680  15.3431  15.3444  15.3455  16.8026
    17.2895  17.2896  18.4387  18.4393  18.4399  18.5785  18.5786  19.0266
    19.0268  19.0269  19.9909  19.9911  19.9914  23.7563  23.7569  23.7574
    30.7298  30.7310  30.7321

          k = 0.1667-0.1667-0.1667 (  9048 PWs)   bands (ev):

   -64.3227 -64.2685 -64.2682 -64.2679 -30.1693 -30.1693 -30.1692 -30.0010
   -30.0004 -29.9999 -29.9523 -29.9521 -29.9519 -29.9260 -29.8364 -29.8364
    13.7053  14.9667  14.9674  14.9681  15.3429  15.3443  15.3457  16.8027
    17.2895  17.2895  18.4386  18.4393  18.4401  18.5784  18.5785  19.0266
    19.0268  19.0269  19.9909  19.9911  19.9914  23.7563  23.7569  23.7575
    30.7296  30.7310  30.7324

          k =-0.1667 0.1667 0.5000 (  9052 PWs)   bands (ev):

   -64.2956 -64.2953 -64.2682 -64.2681 -30.1430 -30.1429 -30.0737 -30.0732
   -30.0412 -30.0412 -29.9402 -29.9402 -29.8954 -29.8953 -29.8946 -29.8940
    15.1638  15.1642  15.8982  15.8982  15.9897  15.9898  16.2405  16.2457
    16.9163  16.9163  17.2160  17.2228  17.8766  17.8789  18.3646  18.3646
    19.4550  19.4558  19.4878  19.4924  19.7611  19.7612  26.3701  26.3701
    27.5744  27.5744  33.6116

          k =-0.5000-0.1667 0.1667 (  9052 PWs)   bands (ev):

   -64.2958 -64.2951 -64.2685 -64.2678 -30.1430 -30.1429 -30.0736 -30.0733
   -30.0414 -30.0410 -29.9405 -29.9400 -29.8953 -29.8953 -29.8945 -29.8941
    15.1638  15.1643  15.8980  15.8984  15.9897  15.9898  16.2428  16.2435
    16.9162  16.9164  17.2190  17.2198  17.8776  17.8779  18.3645  18.3647
    19.4553  19.4555  19.4899  19.4904  19.7611  19.7612  26.3698  26.3704
    27.5742  27.5746  33.6115

          k = 0.5000-0.1667-0.1667 (  9052 PWs)   bands (ev):

   -64.2958 -64.2951 -64.2685 -64.2678 -30.1430 -30.1429 -30.0736 -30.0733
   -30.0413 -30.0410 -29.9405 -29.9400 -29.8953 -29.8953 -29.8945 -29.8942
    15.1638  15.1643  15.8980  15.8983  15.9897  15.9898  16.2428  16.2435
    16.9162  16.9164  17.2190  17.2198  17.8776  17.8779  18.3645  18.3647
    19.4553  19.4555  19.4898  19.4904  19.7612  19.7612  26.3698  26.3704
    27.5742  27.5746  33.6113

          k =-0.1667-0.5000 0.1667 (  9052 PWs)   bands (ev):

   -64.2956 -64.2954 -64.2683 -64.2680 -30.1430 -30.1429 -30.0735 -30.0733
   -30.0413 -30.0412 -29.9403 -29.9401 -29.8953 -29.8953 -29.8944 -29.8943
    15.1640  15.1641  15.8981  15.8982  15.9897  15.9898  16.2430  16.2432
    16.9162  16.9163  17.2193  17.2196  17.8777  17.8778  18.3646  18.3647
    19.4554  19.4554  19.4900  19.4902  19.7611  19.7612  26.3700  26.3702
    27.5743  27.5744  33.6115

          k =-0.1667 0.5000-0.1667 (  9052 PWs)   bands (ev):

   -64.2956 -64.2954 -64.2683 -64.2680 -30.1430 -30.1429 -30.0735 -30.0733
   -30.0412 -30.0411 -29.9403 -29.9401 -29.8953 -29.8953 -29.8944 -29.8943
    15.1639  15.1641  15.8981  15.8982  15.9897  15.9898  16.2430  16.2432
    16.9162  16.9163  17.2193  17.2196  17.8777  17.8778  18.3646  18.3647
    19.4553  19.4554  19.4900  19.4902  19.7611  19.7612  26.3700  26.3702
    27.5743  27.5744  33.6116

          k =-0.5000 0.1667 0.5000 (  9024 PWs)   bands (ev):

   -64.2822 -64.2820 -64.2816 -64.2813 -30.1594 -30.1594 -30.1593 -30.1592
   -29.9550 -29.9549 -29.9545 -29.9541 -29.8812 -29.8810 -29.8808 -29.8806
    15.3406  15.3408  15.3417  15.3423  16.7074  16.7085  16.7103  16.7112
    17.5611  17.5613  17.5632  17.5646  17.5675  17.5677  17.5692  17.5700
    19.0757  19.0772  19.0803  19.0816  22.0933  22.0945  22.0964  22.0979
    29.9109  29.9111  29.9114

          k =-0.5000 0.5000 0.1667 (  9024 PWs)   bands (ev):

   -64.2822 -64.2819 -64.2816 -64.2813 -30.1595 -30.1594 -30.1592 -30.1592
   -29.9552 -29.9549 -29.9545 -29.9541 -29.8812 -29.8810 -29.8808 -29.8806
    15.3404  15.3409  15.3418  15.3423  16.7065  16.7080  16.7106  16.7121
    17.5602  17.5609  17.5629  17.5650  17.5673  17.5686  17.5697  17.5700
    19.0753  19.0771  19.0803  19.0822  22.0919  22.0939  22.0972  22.0991
    29.9105  29.9113  29.9117

     the Fermi energy is    19.8346 ev

!    total energy              =   -2048.11959441 Ry
     Harris-Foulkes estimate   =   -2048.11959494 Ry
     estimated scf accuracy    <       0.00000063 Ry

     total all-electron energy =    -40368.226308 Ry

     The total energy is the sum of the following terms:

     one-electron contribution =    -298.75345284 Ry
     hartree contribution      =     203.10281910 Ry
     xc contribution           =    -123.33929261 Ry
     ewald contribution        =    -808.20155572 Ry
     one-center paw contrib.   =   -1020.92992939 Ry
     smearing contrib. (-TS)   =       0.00181705 Ry

     convergence has been achieved in   8 iterations

     Forces acting on atoms (cartesian axes, Ry/au):

     atom    1 type  1   force =     0.00012535    0.00004071    0.00055997
     atom    2 type  1   force =    -0.00034403    0.00062242    0.00051191
     atom    3 type  1   force =     0.00018063   -0.00008683   -0.00067384
     atom    4 type  1   force =     0.00003805   -0.00057630   -0.00039804

     Total force =     0.001444     Total SCF correction =     0.000764
     SCF correction compared to forces is large: reduce conv_thr to get better values


     Computing stress (Cartesian axis) and pressure

          total   stress  (Ry/bohr**3)                   (kbar)     P=   62.24
   0.00042280   0.00000041   0.00000008         62.20      0.06      0.01
   0.00000041   0.00042365   0.00000052          0.06     62.32      0.08
   0.00000008   0.00000052   0.00042294          0.01      0.08     62.22


     Writing output data file pd_fcc_1.save/
 
     init_run     :      0.41s CPU      0.48s WALL (       1 calls)
     electrons    :      8.36s CPU      8.79s WALL (       1 calls)
     forces       :      0.10s CPU      0.11s WALL (       1 calls)
     stress       :      0.25s CPU      0.25s WALL (       1 calls)

     Called by init_run:
     wfcinit      :      0.23s CPU      0.25s WALL (       1 calls)
     potinit      :      0.08s CPU      0.09s WALL (       1 calls)
     hinit0       :      0.07s CPU      0.07s WALL (       1 calls)

     Called by electrons:
     c_bands      :      6.50s CPU      6.77s WALL (       9 calls)
     sum_band     :      1.25s CPU      1.36s WALL (       9 calls)
     v_of_rho     :      0.06s CPU      0.06s WALL (       9 calls)
     newd         :      0.10s CPU      0.12s WALL (       9 calls)
     PAW_pot      :      0.50s CPU      0.53s WALL (       9 calls)
     mix_rho      :      0.01s CPU      0.01s WALL (       9 calls)

     Called by c_bands:
     init_us_2    :      0.07s CPU      0.07s WALL (     294 calls)
     cegterg      :      6.16s CPU      6.42s WALL (     126 calls)

     Called by sum_band:
     sum_band:bec :      0.01s CPU      0.01s WALL (     126 calls)
     addusdens    :      0.10s CPU      0.12s WALL (       9 calls)

     Called by *egterg:
     h_psi        :      4.49s CPU      4.70s WALL (     407 calls)
     s_psi        :      0.10s CPU      0.13s WALL (     407 calls)
     g_psi        :      0.03s CPU      0.03s WALL (     267 calls)
     cdiaghg      :      1.03s CPU      1.03s WALL (     379 calls)

     Called by h_psi:
     h_psi:pot    :      4.46s CPU      4.67s WALL (     407 calls)
     h_psi:calbec :      0.22s CPU      0.22s WALL (     407 calls)
     vloc_psi     :      4.12s CPU      4.32s WALL (     407 calls)
     add_vuspsi   :      0.11s CPU      0.12s WALL (     407 calls)

     General routines
     calbec       :      0.35s CPU      0.36s WALL (     603 calls)
     fft          :      0.08s CPU      0.09s WALL (     126 calls)
     ffts         :      0.00s CPU      0.00s WALL (       9 calls)
     fftw         :      4.78s CPU      5.04s WALL (   31470 calls)
 
     Parallel routines
     fft_scatt_xy :      0.50s CPU      0.52s WALL (   31605 calls)
     fft_scatt_yz :      2.47s CPU      2.66s WALL (   31605 calls)
 
     PWSCF        :    10.15s CPU        10.82s WALL

 
   This run was terminated on:  18:30:18  31Mar2020            

=------------------------------------------------------------------------------=
   JOB DONE.
=------------------------------------------------------------------------------=
