
     Program PWSCF v.6.3 starts on 31Mar2020 at 18: 8:34 

     This program is part of the open-source Quantum ESPRESSO suite
     for quantum simulation of materials; please cite
         "P. Giannozzi et al., J. Phys.:Condens. Matter 21 395502 (2009);
         "P. Giannozzi et al., J. Phys.:Condens. Matter 29 465901 (2017);
          URL http://www.quantum-espresso.org", 
     in publications or presentations arising from this work. More details at
     http://www.quantum-espresso.org/quote

     Parallel version (MPI & OpenMP), running on      20 processor cores
     Number of MPI processes:                20
     Threads/MPI process:                     1

     MPI processes distributed on     1 nodes
     R & G space division:  proc/nbgrp/npool/nimage =      20
     Reading input from wd/ecut/file_000001.in
Warning: card &IONS ignored
Warning: card ION_DYNAMICS = 'BFGS', ignored
Warning: card / ignored
Warning: card &CELL ignored
Warning: card CELL_DYNAMICS = 'BFGS', ignored
Warning: card CELL_FACTOR = 2.0, ignored
Warning: card PRESS = 0.0, ignored
Warning: card / ignored

     Current dimensions of program PWSCF are:
     Max number of different atomic species (ntypx) = 10
     Max number of k-points (npk) =  40000
     Max angular momentum in pseudopotentials (lmaxx) =  3
               file Pd.pbe-spn-kjpaw_psl.1.0.0.UPF: wavefunction(s)  4S 5S 4D renormalized

     Subspace diagonalization in iterative solution of the eigenvalue problem:
     a serial algorithm will be used

 
     Parallelization info
     --------------------
     sticks:   dense  smooth     PW     G-vecs:    dense   smooth      PW
     Min          60      60     17                 1570     1570     250
     Max          61      61     19                 1575     1575     254
     Sum        1201    1201    357                31439    31439    5041
 


     bravais-lattice index     =            0
     lattice parameter (alat)  =       7.3521  a.u.
     unit-cell volume          =     397.4058 (a.u.)^3
     number of atoms/cell      =            4
     number of atomic types    =            1
     number of electrons       =        72.00
     number of Kohn-Sham states=           43
     kinetic-energy cutoff     =      70.0000  Ry
     charge density cutoff     =     280.0000  Ry
     convergence threshold     =      1.0E-06
     mixing beta               =       0.1000
     number of iterations used =           10  plain     mixing
     Exchange-correlation      = SLA PW PBX PBC ( 1  4  3  4 0 0)

     celldm(1)=   7.352100  celldm(2)=   0.000000  celldm(3)=   0.000000
     celldm(4)=   0.000000  celldm(5)=   0.000000  celldm(6)=   0.000000

     crystal axes: (cart. coord. in units of alat)
               a(1) = (   1.000000   0.000000   0.000000 )  
               a(2) = (   0.000000   1.000000   0.000000 )  
               a(3) = (   0.000000   0.000000   1.000000 )  

     reciprocal axes: (cart. coord. in units 2 pi/alat)
               b(1) = (  1.000000  0.000000  0.000000 )  
               b(2) = (  0.000000  1.000000  0.000000 )  
               b(3) = (  0.000000  0.000000  1.000000 )  


     PseudoPot. # 1 for Pd read from file:
     /rds/homes/b/bxp912/pp/Pd.pbe-spn-kjpaw_psl.1.0.0.UPF
     MD5 check sum: 790f2ebce206edfd9790dcb9844eca51
     Pseudo is Projector augmented-wave + core cor, Zval = 18.0
     Generated using "atomic" code by A. Dal Corso v.6.3
     Shape of augmentation charge: PSQ
     Using radial grid of 1235 points,  6 beta functions with: 
                l(1) =   0
                l(2) =   0
                l(3) =   1
                l(4) =   1
                l(5) =   2
                l(6) =   2
     Q(r) pseudized with 0 coefficients 


     atomic species   valence    mass     pseudopotential
        Pd            18.00   106.42000     Pd( 1.00)

     No symmetry found



   Cartesian axes

     site n.     atom                  positions (alat units)
         1           Pd  tau(   1) = (  -0.0000679   0.0000198   0.0001413  )
         2           Pd  tau(   2) = (   0.5001653   0.4996054   0.0001461  )
         3           Pd  tau(   3) = (   0.4998071   0.0000633   0.5006138  )
         4           Pd  tau(   4) = (  -0.0000415   0.5004543   0.5003815  )

     number of k points=    14  Marzari-Vanderbilt smearing, width (Ry)=  0.0200
                       cart. coord. in units 2pi/alat
        k(    1) = (   0.1666667   0.1666667   0.1666667), wk =   0.1481481
        k(    2) = (   0.1666667   0.1666667  -0.5000000), wk =   0.1481481
        k(    3) = (   0.1666667  -0.5000000  -0.5000000), wk =   0.1481481
        k(    4) = (  -0.5000000  -0.5000000  -0.5000000), wk =   0.0740741
        k(    5) = (  -0.1666667  -0.1666667   0.1666667), wk =   0.1481481
        k(    6) = (  -0.1666667   0.1666667  -0.1666667), wk =   0.1481481
        k(    7) = (   0.1666667  -0.1666667  -0.1666667), wk =   0.1481481
        k(    8) = (  -0.1666667   0.1666667   0.5000000), wk =   0.1481481
        k(    9) = (  -0.5000000  -0.1666667   0.1666667), wk =   0.1481481
        k(   10) = (   0.5000000  -0.1666667  -0.1666667), wk =   0.1481481
        k(   11) = (  -0.1666667  -0.5000000   0.1666667), wk =   0.1481481
        k(   12) = (  -0.1666667   0.5000000  -0.1666667), wk =   0.1481481
        k(   13) = (  -0.5000000   0.1666667   0.5000000), wk =   0.1481481
        k(   14) = (  -0.5000000   0.5000000   0.1666667), wk =   0.1481481

     Dense  grid:    31439 G-vectors     FFT dimensions: (  40,  40,  40)

     Estimated max dynamical RAM per process >       9.51 MB

     Estimated total dynamical RAM >     190.12 MB

     Check: negative/imaginary core charge=   -0.000013    0.000000

     Initial potential from superposition of free atoms

     starting charge   71.99847, renormalised to   72.00000
     Starting wfcs are   40 randomized atomic wfcs +    3 random wfcs
     Checking if some PAW data can be deallocated... 

     total cpu time spent up to now is        2.0 secs

     Self-consistent Calculation

     iteration #  1     ecut=    70.00 Ry     beta= 0.10
     Davidson diagonalization with overlap
     ethr =  1.00E-02,  avg # of iterations =  3.0

     Threshold (ethr) on eigenvalues was too large:
     Diagonalizing with lowered threshold

     Davidson diagonalization with overlap
     ethr =  4.57E-05,  avg # of iterations =  2.9

     total cpu time spent up to now is        3.1 secs

     total energy              =   -2048.11324347 Ry
     Harris-Foulkes estimate   =   -2048.11747739 Ry
     estimated scf accuracy    <       0.03177401 Ry

     iteration #  2     ecut=    70.00 Ry     beta= 0.10
     Davidson diagonalization with overlap
     ethr =  4.41E-05,  avg # of iterations =  1.0

     total cpu time spent up to now is        3.5 secs

     total energy              =   -2048.10708400 Ry
     Harris-Foulkes estimate   =   -2048.11369801 Ry
     estimated scf accuracy    <       0.01851892 Ry

     iteration #  3     ecut=    70.00 Ry     beta= 0.10
     Davidson diagonalization with overlap
     ethr =  2.57E-05,  avg # of iterations =  2.0

     total cpu time spent up to now is        4.0 secs

     total energy              =   -2048.10895439 Ry
     Harris-Foulkes estimate   =   -2048.10923700 Ry
     estimated scf accuracy    <       0.00268830 Ry

     iteration #  4     ecut=    70.00 Ry     beta= 0.10
     Davidson diagonalization with overlap
     ethr =  3.73E-06,  avg # of iterations =  1.0

     total cpu time spent up to now is        4.4 secs

     total energy              =   -2048.10842644 Ry
     Harris-Foulkes estimate   =   -2048.10901357 Ry
     estimated scf accuracy    <       0.00178572 Ry

     iteration #  5     ecut=    70.00 Ry     beta= 0.10
     Davidson diagonalization with overlap
     ethr =  2.48E-06,  avg # of iterations =  1.9

     total cpu time spent up to now is        4.9 secs

     total energy              =   -2048.10853827 Ry
     Harris-Foulkes estimate   =   -2048.10854527 Ry
     estimated scf accuracy    <       0.00002164 Ry

     iteration #  6     ecut=    70.00 Ry     beta= 0.10
     Davidson diagonalization with overlap
     ethr =  3.01E-08,  avg # of iterations =  3.0

     total cpu time spent up to now is        5.5 secs

     total energy              =   -2048.10854449 Ry
     Harris-Foulkes estimate   =   -2048.10854580 Ry
     estimated scf accuracy    <       0.00000983 Ry

     iteration #  7     ecut=    70.00 Ry     beta= 0.10
     Davidson diagonalization with overlap
     ethr =  1.37E-08,  avg # of iterations =  1.0

     total cpu time spent up to now is        5.9 secs

     total energy              =   -2048.10854203 Ry
     Harris-Foulkes estimate   =   -2048.10854462 Ry
     estimated scf accuracy    <       0.00000783 Ry

     iteration #  8     ecut=    70.00 Ry     beta= 0.10
     Davidson diagonalization with overlap
     ethr =  1.09E-08,  avg # of iterations =  2.9

     total cpu time spent up to now is        6.5 secs

     End of self-consistent calculation

          k = 0.1667 0.1667 0.1667 (  3929 PWs)   bands (ev):

   -64.3194 -64.2651 -64.2649 -64.2646 -30.1631 -30.1631 -30.1631 -29.9947
   -29.9941 -29.9933 -29.9458 -29.9457 -29.9455 -29.9196 -29.8296 -29.8296
    13.7068  14.9673  14.9682  14.9693  15.3432  15.3452  15.3473  16.8035
    17.2904  17.2904  18.4392  18.4404  18.4414  18.5793  18.5794  19.0276
    19.0278  19.0278  19.9916  19.9920  19.9924  23.7576  23.7585  23.7594
    30.7314  30.7333  30.7354

          k = 0.1667 0.1667-0.5000 (  3938 PWs)   bands (ev):

   -64.2923 -64.2920 -64.2648 -64.2648 -30.1366 -30.1366 -30.0674 -30.0669
   -30.0350 -30.0349 -29.9338 -29.9338 -29.8888 -29.8887 -29.8881 -29.8875
    15.1650  15.1654  15.8991  15.8991  15.9907  15.9908  16.2415  16.2467
    16.9173  16.9173  17.2169  17.2237  17.8774  17.8798  18.3655  18.3655
    19.4559  19.4567  19.4890  19.4936  19.7620  19.7620  26.3718  26.3718
    27.5766  27.5766  33.6144

          k = 0.1667-0.5000-0.5000 (  3900 PWs)   bands (ev):

   -64.2787 -64.2785 -64.2782 -64.2781 -30.1532 -30.1531 -30.1530 -30.1530
   -29.9487 -29.9485 -29.9477 -29.9475 -29.8744 -29.8744 -29.8740 -29.8738
    15.3413  15.3418  15.3431  15.3434  16.7076  16.7087  16.7118  16.7129
    17.5612  17.5619  17.5644  17.5660  17.5679  17.5697  17.5709  17.5713
    19.0761  19.0774  19.0821  19.0834  22.0936  22.0951  22.0989  22.1003
    29.9131  29.9135  29.9138

          k =-0.5000-0.5000-0.5000 (  3912 PWs)   bands (ev):

   -64.2786 -64.2784 -64.2782 -64.2781 -30.2271 -30.2271 -30.2271 -30.2270
   -29.8743 -29.8742 -29.8742 -29.8741 -29.8740 -29.8740 -29.8739 -29.8739
    14.5892  14.5892  14.5893  14.5894  16.9867  16.9867  16.9868  16.9868
    16.9868  16.9868  16.9869  16.9870  19.8461  19.8461  19.8461  19.8462
    19.8462  19.8462  19.8463  19.8463  20.9457  20.9459  20.9463  20.9464
    27.2355  27.2355  27.2358

          k =-0.1667-0.1667 0.1667 (  3929 PWs)   bands (ev):

   -64.3194 -64.2651 -64.2648 -64.2646 -30.1631 -30.1631 -30.1630 -29.9946
   -29.9941 -29.9935 -29.9458 -29.9456 -29.9455 -29.9197 -29.8296 -29.8295
    13.7068  14.9675  14.9682  14.9691  15.3436  15.3452  15.3469  16.8034
    17.2905  17.2905  18.4394  18.4402  18.4411  18.5793  18.5794  19.0276
    19.0277  19.0278  19.9917  19.9920  19.9923  23.7578  23.7585  23.7592
    30.7318  30.7333  30.7349

          k =-0.1667 0.1667-0.1667 (  3929 PWs)   bands (ev):

   -64.3194 -64.2651 -64.2648 -64.2646 -30.1631 -30.1631 -30.1630 -29.9946
   -29.9940 -29.9937 -29.9458 -29.9456 -29.9455 -29.9197 -29.8296 -29.8295
    13.7068  14.9676  14.9684  14.9689  15.3440  15.3453  15.3464  16.8034
    17.2905  17.2905  18.4396  18.4402  18.4409  18.5793  18.5794  19.0276
    19.0277  19.0278  19.9918  19.9920  19.9923  23.7580  23.7585  23.7590
    30.7322  30.7334  30.7345

          k = 0.1667-0.1667-0.1667 (  3929 PWs)   bands (ev):

   -64.3194 -64.2651 -64.2648 -64.2646 -30.1631 -30.1631 -30.1630 -29.9946
   -29.9941 -29.9936 -29.9458 -29.9457 -29.9455 -29.9197 -29.8296 -29.8295
    13.7068  14.9676  14.9683  14.9690  15.3438  15.3453  15.3467  16.8035
    17.2904  17.2905  18.4395  18.4403  18.4411  18.5793  18.5793  19.0276
    19.0277  19.0278  19.9918  19.9920  19.9923  23.7579  23.7585  23.7591
    30.7320  30.7334  30.7347

          k =-0.1667 0.1667 0.5000 (  3938 PWs)   bands (ev):

   -64.2923 -64.2920 -64.2648 -64.2648 -30.1366 -30.1366 -30.0674 -30.0670
   -30.0350 -30.0349 -29.9338 -29.9338 -29.8888 -29.8887 -29.8881 -29.8875
    15.1650  15.1654  15.8991  15.8991  15.9907  15.9908  16.2414  16.2467
    16.9172  16.9173  17.2169  17.2237  17.8774  17.8798  18.3655  18.3655
    19.4559  19.4568  19.4889  19.4936  19.7620  19.7621  26.3718  26.3718
    27.5766  27.5766  33.6144

          k =-0.5000-0.1667 0.1667 (  3938 PWs)   bands (ev):

   -64.2923 -64.2919 -64.2650 -64.2646 -30.1366 -30.1366 -30.0673 -30.0670
   -30.0351 -30.0349 -29.9340 -29.9336 -29.8887 -29.8887 -29.8879 -29.8877
    15.1650  15.1655  15.8989  15.8993  15.9907  15.9908  16.2437  16.2444
    16.9172  16.9173  17.2199  17.2207  17.8784  17.8788  18.3654  18.3656
    19.4562  19.4564  19.4910  19.4916  19.7620  19.7621  26.3716  26.3720
    27.5764  27.5768  33.6143

          k = 0.5000-0.1667-0.1667 (  3938 PWs)   bands (ev):

   -64.2923 -64.2919 -64.2650 -64.2646 -30.1366 -30.1366 -30.0673 -30.0670
   -30.0350 -30.0348 -29.9340 -29.9336 -29.8888 -29.8887 -29.8879 -29.8877
    15.1650  15.1654  15.8989  15.8992  15.9907  15.9908  16.2437  16.2444
    16.9172  16.9173  17.2199  17.2207  17.8784  17.8787  18.3654  18.3656
    19.4562  19.4564  19.4910  19.4915  19.7620  19.7621  26.3716  26.3720
    27.5764  27.5768  33.6141

          k =-0.1667-0.5000 0.1667 (  3938 PWs)   bands (ev):

   -64.2922 -64.2920 -64.2648 -64.2647 -30.1366 -30.1366 -30.0672 -30.0671
   -30.0350 -30.0349 -29.9339 -29.9337 -29.8887 -29.8887 -29.8879 -29.8878
    15.1652  15.1653  15.8991  15.8991  15.9907  15.9908  16.2440  16.2442
    16.9172  16.9173  17.2202  17.2205  17.8785  17.8786  18.3654  18.3656
    19.4563  19.4563  19.4912  19.4914  19.7620  19.7621  26.3718  26.3719
    27.5766  27.5767  33.6142

          k =-0.1667 0.5000-0.1667 (  3938 PWs)   bands (ev):

   -64.2922 -64.2920 -64.2648 -64.2647 -30.1366 -30.1366 -30.0672 -30.0671
   -30.0350 -30.0349 -29.9339 -29.9337 -29.8887 -29.8887 -29.8879 -29.8878
    15.1652  15.1653  15.8990  15.8991  15.9907  15.9908  16.2440  16.2442
    16.9172  16.9173  17.2202  17.2204  17.8785  17.8786  18.3655  18.3656
    19.4563  19.4563  19.4912  19.4914  19.7620  19.7621  26.3717  26.3719
    27.5766  27.5767  33.6143

          k =-0.5000 0.1667 0.5000 (  3900 PWs)   bands (ev):

   -64.2787 -64.2785 -64.2783 -64.2781 -30.1532 -30.1532 -30.1531 -30.1530
   -29.9484 -29.9483 -29.9479 -29.9476 -29.8745 -29.8742 -29.8740 -29.8739
    15.3416  15.3419  15.3427  15.3433  16.7083  16.7095  16.7112  16.7121
    17.5622  17.5625  17.5643  17.5657  17.5685  17.5687  17.5702  17.5710
    19.0768  19.0782  19.0814  19.0826  22.0947  22.0959  22.0978  22.0993
    29.9133  29.9134  29.9137

          k =-0.5000 0.5000 0.1667 (  3900 PWs)   bands (ev):

   -64.2787 -64.2785 -64.2783 -64.2781 -30.1532 -30.1531 -30.1530 -30.1529
   -29.9486 -29.9483 -29.9478 -29.9475 -29.8745 -29.8743 -29.8741 -29.8738
    15.3414  15.3419  15.3428  15.3433  16.7075  16.7090  16.7115  16.7131
    17.5613  17.5621  17.5640  17.5661  17.5684  17.5696  17.5707  17.5710
    19.0763  19.0782  19.0813  19.0832  22.0933  22.0953  22.0986  22.1006
    29.9129  29.9135  29.9139

     the Fermi energy is    19.8355 ev

!    total energy              =   -2048.10854291 Ry
     Harris-Foulkes estimate   =   -2048.10854322 Ry
     estimated scf accuracy    <       0.00000047 Ry

     total all-electron energy =    -40368.215256 Ry

     The total energy is the sum of the following terms:

     one-electron contribution =    -298.72736687 Ry
     hartree contribution      =     203.09360309 Ry
     xc contribution           =    -123.33642435 Ry
     ewald contribution        =    -808.20155572 Ry
     one-center paw contrib.   =   -1020.93861316 Ry
     smearing contrib. (-TS)   =       0.00181410 Ry

     convergence has been achieved in   8 iterations

     Forces acting on atoms (cartesian axes, Ry/au):

     atom    1 type  1   force =     0.00012832    0.00003101    0.00056288
     atom    2 type  1   force =    -0.00036533    0.00066835    0.00052506
     atom    3 type  1   force =     0.00018732   -0.00010032   -0.00068293
     atom    4 type  1   force =     0.00004969   -0.00059904   -0.00040500

     Total force =     0.001492     Total SCF correction =     0.000665
     SCF correction compared to forces is large: reduce conv_thr to get better values


     Computing stress (Cartesian axis) and pressure

          total   stress  (Ry/bohr**3)                   (kbar)     P=   51.49
   0.00034976   0.00000051   0.00000016         51.45      0.08      0.02
   0.00000051   0.00035046   0.00000067          0.08     51.55      0.10
   0.00000016   0.00000067   0.00034989          0.02      0.10     51.47


     Writing output data file pd_fcc_1.save/
 
     init_run     :      0.29s CPU      0.38s WALL (       1 calls)
     electrons    :      4.30s CPU      4.51s WALL (       1 calls)
     forces       :      0.05s CPU      0.05s WALL (       1 calls)
     stress       :      0.10s CPU      0.11s WALL (       1 calls)

     Called by init_run:
     wfcinit      :      0.12s CPU      0.13s WALL (       1 calls)
     potinit      :      0.08s CPU      0.09s WALL (       1 calls)
     hinit0       :      0.07s CPU      0.08s WALL (       1 calls)

     Called by electrons:
     c_bands      :      3.32s CPU      3.46s WALL (       9 calls)
     sum_band     :      0.48s CPU      0.51s WALL (       9 calls)
     v_of_rho     :      0.02s CPU      0.03s WALL (       9 calls)
     newd         :      0.05s CPU      0.06s WALL (       9 calls)
     PAW_pot      :      0.50s CPU      0.52s WALL (       9 calls)
     mix_rho      :      0.01s CPU      0.01s WALL (       9 calls)

     Called by c_bands:
     init_us_2    :      0.03s CPU      0.03s WALL (     294 calls)
     cegterg      :      3.16s CPU      3.30s WALL (     126 calls)

     Called by sum_band:
     sum_band:bec :      0.00s CPU      0.01s WALL (     126 calls)
     addusdens    :      0.05s CPU      0.05s WALL (       9 calls)

     Called by *egterg:
     h_psi        :      1.86s CPU      1.96s WALL (     401 calls)
     s_psi        :      0.05s CPU      0.05s WALL (     401 calls)
     g_psi        :      0.01s CPU      0.01s WALL (     261 calls)
     cdiaghg      :      1.00s CPU      1.01s WALL (     373 calls)

     Called by h_psi:
     h_psi:pot    :      1.84s CPU      1.95s WALL (     401 calls)
     h_psi:calbec :      0.12s CPU      0.14s WALL (     401 calls)
     vloc_psi     :      1.67s CPU      1.76s WALL (     401 calls)
     add_vuspsi   :      0.05s CPU      0.05s WALL (     401 calls)

     General routines
     calbec       :      0.18s CPU      0.20s WALL (     597 calls)
     fft          :      0.03s CPU      0.04s WALL (     126 calls)
     ffts         :      0.00s CPU      0.00s WALL (       9 calls)
     fftw         :      1.89s CPU      1.98s WALL (   31252 calls)
 
     Parallel routines
     fft_scatt_xy :      0.16s CPU      0.16s WALL (   31387 calls)
     fft_scatt_yz :      1.18s CPU      1.25s WALL (   31387 calls)
 
     PWSCF        :     5.72s CPU        16.93s WALL

 
   This run was terminated on:  18: 8:51  31Mar2020            

=------------------------------------------------------------------------------=
   JOB DONE.
=------------------------------------------------------------------------------=
