
     Program PWSCF v.6.3 starts on  6Apr2020 at  7:52:47 

     This program is part of the open-source Quantum ESPRESSO suite
     for quantum simulation of materials; please cite
         "P. Giannozzi et al., J. Phys.:Condens. Matter 21 395502 (2009);
         "P. Giannozzi et al., J. Phys.:Condens. Matter 29 465901 (2017);
          URL http://www.quantum-espresso.org", 
     in publications or presentations arising from this work. More details at
     http://www.quantum-espresso.org/quote

     Parallel version (MPI & OpenMP), running on      20 processor cores
     Number of MPI processes:                20
     Threads/MPI process:                     1

     MPI processes distributed on     1 nodes
     R & G space division:  proc/nbgrp/npool/nimage =      20
     Reading input from wd/ecut/file_000189.in
Warning: card &IONS ignored
Warning: card ION_DYNAMICS = 'BFGS', ignored
Warning: card / ignored
Warning: card &CELL ignored
Warning: card CELL_DYNAMICS = 'BFGS', ignored
Warning: card CELL_FACTOR = 2.0, ignored
Warning: card PRESS = 0.0, ignored
Warning: card / ignored

     Current dimensions of program PWSCF are:
     Max number of different atomic species (ntypx) = 10
     Max number of k-points (npk) =  40000
     Max angular momentum in pseudopotentials (lmaxx) =  3
               file Pd.pbe-spn-kjpaw_psl.1.0.0.UPF: wavefunction(s)  4S 5S 4D renormalized

     Subspace diagonalization in iterative solution of the eigenvalue problem:
     a serial algorithm will be used

 
     Parallelization info
     --------------------
     sticks:   dense  smooth     PW     G-vecs:    dense   smooth      PW
     Min          77      77     29                 2289     2289     539
     Max          78      78     30                 2294     2294     542
     Sum        1549    1549    593                45817    45817   10827
 


     bravais-lattice index     =            0
     lattice parameter (alat)  =       7.3521  a.u.
     unit-cell volume          =     397.4058 (a.u.)^3
     number of atoms/cell      =            4
     number of atomic types    =            1
     number of electrons       =        72.00
     number of Kohn-Sham states=           43
     kinetic-energy cutoff     =     120.0000  Ry
     charge density cutoff     =     360.0000  Ry
     convergence threshold     =      1.0E-06
     mixing beta               =       0.1000
     number of iterations used =           10  plain     mixing
     Exchange-correlation      = SLA PW PBX PBC ( 1  4  3  4 0 0)

     celldm(1)=   7.352100  celldm(2)=   0.000000  celldm(3)=   0.000000
     celldm(4)=   0.000000  celldm(5)=   0.000000  celldm(6)=   0.000000

     crystal axes: (cart. coord. in units of alat)
               a(1) = (   1.000000   0.000000   0.000000 )  
               a(2) = (   0.000000   1.000000   0.000000 )  
               a(3) = (   0.000000   0.000000   1.000000 )  

     reciprocal axes: (cart. coord. in units 2 pi/alat)
               b(1) = (  1.000000  0.000000  0.000000 )  
               b(2) = (  0.000000  1.000000  0.000000 )  
               b(3) = (  0.000000  0.000000  1.000000 )  


     PseudoPot. # 1 for Pd read from file:
     /rds/homes/b/bxp912/pp/Pd.pbe-spn-kjpaw_psl.1.0.0.UPF
     MD5 check sum: 790f2ebce206edfd9790dcb9844eca51
     Pseudo is Projector augmented-wave + core cor, Zval = 18.0
     Generated using "atomic" code by A. Dal Corso v.6.3
     Shape of augmentation charge: PSQ
     Using radial grid of 1235 points,  6 beta functions with: 
                l(1) =   0
                l(2) =   0
                l(3) =   1
                l(4) =   1
                l(5) =   2
                l(6) =   2
     Q(r) pseudized with 0 coefficients 


     atomic species   valence    mass     pseudopotential
        Pd            18.00   106.42000     Pd( 1.00)

     No symmetry found



   Cartesian axes

     site n.     atom                  positions (alat units)
         1           Pd  tau(   1) = (  -0.0000679   0.0000198   0.0001413  )
         2           Pd  tau(   2) = (   0.5001653   0.4996054   0.0001461  )
         3           Pd  tau(   3) = (   0.4998071   0.0000633   0.5006138  )
         4           Pd  tau(   4) = (  -0.0000415   0.5004543   0.5003815  )

     number of k points=    14  Marzari-Vanderbilt smearing, width (Ry)=  0.0200
                       cart. coord. in units 2pi/alat
        k(    1) = (   0.1666667   0.1666667   0.1666667), wk =   0.1481481
        k(    2) = (   0.1666667   0.1666667  -0.5000000), wk =   0.1481481
        k(    3) = (   0.1666667  -0.5000000  -0.5000000), wk =   0.1481481
        k(    4) = (  -0.5000000  -0.5000000  -0.5000000), wk =   0.0740741
        k(    5) = (  -0.1666667  -0.1666667   0.1666667), wk =   0.1481481
        k(    6) = (  -0.1666667   0.1666667  -0.1666667), wk =   0.1481481
        k(    7) = (   0.1666667  -0.1666667  -0.1666667), wk =   0.1481481
        k(    8) = (  -0.1666667   0.1666667   0.5000000), wk =   0.1481481
        k(    9) = (  -0.5000000  -0.1666667   0.1666667), wk =   0.1481481
        k(   10) = (   0.5000000  -0.1666667  -0.1666667), wk =   0.1481481
        k(   11) = (  -0.1666667  -0.5000000   0.1666667), wk =   0.1481481
        k(   12) = (  -0.1666667   0.5000000  -0.1666667), wk =   0.1481481
        k(   13) = (  -0.5000000   0.1666667   0.5000000), wk =   0.1481481
        k(   14) = (  -0.5000000   0.5000000   0.1666667), wk =   0.1481481

     Dense  grid:    45817 G-vectors     FFT dimensions: (  45,  45,  45)

     Estimated max dynamical RAM per process >      15.14 MB

     Estimated total dynamical RAM >     302.85 MB

     Check: negative/imaginary core charge=   -0.000007    0.000000

     Initial potential from superposition of free atoms

     starting charge   71.99847, renormalised to   72.00000
     Starting wfcs are   40 randomized atomic wfcs +    3 random wfcs
     Checking if some PAW data can be deallocated... 

     total cpu time spent up to now is        1.3 secs

     Self-consistent Calculation

     iteration #  1     ecut=   120.00 Ry     beta= 0.10
     Davidson diagonalization with overlap
     ethr =  1.00E-02,  avg # of iterations =  3.0

     Threshold (ethr) on eigenvalues was too large:
     Diagonalizing with lowered threshold

     Davidson diagonalization with overlap
     ethr =  4.67E-05,  avg # of iterations =  2.9

     total cpu time spent up to now is        2.9 secs

     total energy              =   -2048.12467527 Ry
     Harris-Foulkes estimate   =   -2048.12894814 Ry
     estimated scf accuracy    <       0.03210957 Ry

     iteration #  2     ecut=   120.00 Ry     beta= 0.10
     Davidson diagonalization with overlap
     ethr =  4.46E-05,  avg # of iterations =  1.0

     total cpu time spent up to now is        3.6 secs

     total energy              =   -2048.11839002 Ry
     Harris-Foulkes estimate   =   -2048.12514210 Ry
     estimated scf accuracy    <       0.01879678 Ry

     iteration #  3     ecut=   120.00 Ry     beta= 0.10
     Davidson diagonalization with overlap
     ethr =  2.61E-05,  avg # of iterations =  2.0

     total cpu time spent up to now is        4.4 secs

     total energy              =   -2048.12021702 Ry
     Harris-Foulkes estimate   =   -2048.12054014 Ry
     estimated scf accuracy    <       0.00275451 Ry

     iteration #  4     ecut=   120.00 Ry     beta= 0.10
     Davidson diagonalization with overlap
     ethr =  3.83E-06,  avg # of iterations =  1.1

     total cpu time spent up to now is        5.0 secs

     total energy              =   -2048.11962467 Ry
     Harris-Foulkes estimate   =   -2048.12027892 Ry
     estimated scf accuracy    <       0.00180656 Ry

     iteration #  5     ecut=   120.00 Ry     beta= 0.10
     Davidson diagonalization with overlap
     ethr =  2.51E-06,  avg # of iterations =  2.0

     total cpu time spent up to now is        5.7 secs

     total energy              =   -2048.11975505 Ry
     Harris-Foulkes estimate   =   -2048.11976131 Ry
     estimated scf accuracy    <       0.00002310 Ry

     iteration #  6     ecut=   120.00 Ry     beta= 0.10
     Davidson diagonalization with overlap
     ethr =  3.21E-08,  avg # of iterations =  3.3

     total cpu time spent up to now is        6.8 secs

     total energy              =   -2048.11976117 Ry
     Harris-Foulkes estimate   =   -2048.11976249 Ry
     estimated scf accuracy    <       0.00001229 Ry

     iteration #  7     ecut=   120.00 Ry     beta= 0.10
     Davidson diagonalization with overlap
     ethr =  1.71E-08,  avg # of iterations =  1.0

     total cpu time spent up to now is        7.5 secs

     total energy              =   -2048.11975730 Ry
     Harris-Foulkes estimate   =   -2048.11976123 Ry
     estimated scf accuracy    <       0.00001015 Ry

     iteration #  8     ecut=   120.00 Ry     beta= 0.10
     Davidson diagonalization with overlap
     ethr =  1.41E-08,  avg # of iterations =  2.6

     total cpu time spent up to now is        8.3 secs

     End of self-consistent calculation

          k = 0.1667 0.1667 0.1667 (  8802 PWs)   bands (ev):

   -64.3228 -64.2686 -64.2683 -64.2681 -30.1691 -30.1691 -30.1690 -30.0009
   -30.0003 -29.9995 -29.9520 -29.9519 -29.9517 -29.9257 -29.8362 -29.8362
    13.7057  14.9666  14.9675  14.9687  15.3425  15.3445  15.3466  16.8028
    17.2896  17.2896  18.4384  18.4395  18.4406  18.5786  18.5787  19.0268
    19.0270  19.0271  19.9908  19.9912  19.9916  23.7562  23.7571  23.7580
    30.7292  30.7312  30.7332

          k = 0.1667 0.1667-0.5000 (  8798 PWs)   bands (ev):

   -64.2958 -64.2954 -64.2684 -64.2681 -30.1428 -30.1427 -30.0734 -30.0729
   -30.0410 -30.0409 -29.9400 -29.9400 -29.8952 -29.8951 -29.8944 -29.8938
    15.1641  15.1645  15.8984  15.8984  15.9899  15.9900  16.2407  16.2459
    16.9165  16.9165  17.2161  17.2230  17.8767  17.8791  18.3647  18.3648
    19.4551  19.4559  19.4880  19.4927  19.7613  19.7613  26.3704  26.3705
    27.5745  27.5746  33.6117

          k = 0.1667-0.5000-0.5000 (  8844 PWs)   bands (ev):

   -64.2822 -64.2819 -64.2817 -64.2815 -30.1592 -30.1592 -30.1590 -30.1590
   -29.9551 -29.9549 -29.9541 -29.9539 -29.8810 -29.8809 -29.8805 -29.8803
    15.3405  15.3409  15.3422  15.3425  16.7068  16.7079  16.7111  16.7122
    17.5603  17.5610  17.5635  17.5651  17.5671  17.5688  17.5701  17.5705
    19.0752  19.0765  19.0812  19.0825  22.0924  22.0939  22.0977  22.0991
    29.9111  29.9116  29.9118

          k =-0.5000-0.5000-0.5000 (  8744 PWs)   bands (ev):

   -64.2822 -64.2818 -64.2818 -64.2815 -30.2330 -30.2329 -30.2329 -30.2329
   -29.8808 -29.8807 -29.8807 -29.8806 -29.8804 -29.8804 -29.8804 -29.8803
    14.5883  14.5884  14.5885  14.5886  16.9859  16.9859  16.9859  16.9860
    16.9860  16.9861  16.9861  16.9862  19.8454  19.8454  19.8454  19.8455
    19.8456  19.8456  19.8456  19.8456  20.9444  20.9445  20.9450  20.9452
    27.2333  27.2334  27.2337

          k =-0.1667-0.1667 0.1667 (  8802 PWs)   bands (ev):

   -64.3228 -64.2686 -64.2683 -64.2681 -30.1691 -30.1691 -30.1690 -30.0007
   -30.0003 -29.9996 -29.9521 -29.9518 -29.9517 -29.9257 -29.8362 -29.8362
    13.7057  14.9668  14.9675  14.9685  15.3429  15.3445  15.3461  16.8028
    17.2897  17.2897  18.4386  18.4394  18.4403  18.5786  18.5787  19.0268
    19.0270  19.0270  19.9910  19.9913  19.9916  23.7564  23.7571  23.7578
    30.7296  30.7312  30.7328

          k =-0.1667 0.1667-0.1667 (  8802 PWs)   bands (ev):

   -64.3228 -64.2686 -64.2683 -64.2681 -30.1691 -30.1691 -30.1690 -30.0007
   -30.0002 -29.9998 -29.9520 -29.9518 -29.9517 -29.9258 -29.8362 -29.8361
    13.7057  14.9670  14.9677  14.9682  15.3433  15.3446  15.3457  16.8028
    17.2897  17.2897  18.4388  18.4394  18.4401  18.5786  18.5787  19.0268
    19.0269  19.0270  19.9911  19.9913  19.9915  23.7566  23.7572  23.7576
    30.7300  30.7312  30.7324

          k = 0.1667-0.1667-0.1667 (  8802 PWs)   bands (ev):

   -64.3228 -64.2686 -64.2683 -64.2681 -30.1691 -30.1691 -30.1690 -30.0007
   -30.0002 -29.9997 -29.9520 -29.9519 -29.9517 -29.9257 -29.8362 -29.8362
    13.7057  14.9669  14.9676  14.9683  15.3431  15.3445  15.3459  16.8028
    17.2897  17.2897  18.4387  18.4395  18.4402  18.5786  18.5786  19.0268
    19.0269  19.0270  19.9910  19.9913  19.9915  23.7565  23.7571  23.7577
    30.7298  30.7312  30.7326

          k =-0.1667 0.1667 0.5000 (  8798 PWs)   bands (ev):

   -64.2958 -64.2954 -64.2684 -64.2681 -30.1428 -30.1427 -30.0734 -30.0730
   -30.0410 -30.0410 -29.9400 -29.9400 -29.8952 -29.8951 -29.8944 -29.8938
    15.1641  15.1645  15.8984  15.8984  15.9899  15.9899  16.2407  16.2459
    16.9164  16.9165  17.2161  17.2230  17.8767  17.8791  18.3648  18.3648
    19.4551  19.4560  19.4880  19.4926  19.7613  19.7613  26.3704  26.3705
    27.5745  27.5745  33.6118

          k =-0.5000-0.1667 0.1667 (  8798 PWs)   bands (ev):

   -64.2958 -64.2954 -64.2684 -64.2681 -30.1428 -30.1427 -30.0734 -30.0730
   -30.0411 -30.0408 -29.9402 -29.9398 -29.8951 -29.8951 -29.8942 -29.8939
    15.1640  15.1645  15.8982  15.8986  15.9898  15.9900  16.2430  16.2437
    16.9164  16.9165  17.2192  17.2200  17.8777  17.8781  18.3647  18.3648
    19.4555  19.4556  19.4900  19.4906  19.7613  19.7613  26.3702  26.3707
    27.5743  27.5748  33.6117

          k = 0.5000-0.1667-0.1667 (  8798 PWs)   bands (ev):

   -64.2958 -64.2954 -64.2684 -64.2681 -30.1428 -30.1427 -30.0734 -30.0730
   -30.0411 -30.0408 -29.9402 -29.9398 -29.8951 -29.8951 -29.8942 -29.8940
    15.1640  15.1645  15.8982  15.8986  15.9899  15.9900  16.2430  16.2437
    16.9164  16.9166  17.2192  17.2200  17.8777  17.8781  18.3647  18.3649
    19.4554  19.4556  19.4900  19.4906  19.7613  19.7613  26.3702  26.3707
    27.5743  27.5748  33.6115

          k =-0.1667-0.5000 0.1667 (  8798 PWs)   bands (ev):

   -64.2956 -64.2955 -64.2683 -64.2682 -30.1428 -30.1427 -30.0732 -30.0731
   -30.0410 -30.0410 -29.9400 -29.9399 -29.8951 -29.8951 -29.8942 -29.8941
    15.1642  15.1644  15.8984  15.8984  15.9899  15.9900  16.2432  16.2434
    16.9164  16.9165  17.2195  17.2197  17.8778  17.8779  18.3647  18.3648
    19.4555  19.4555  19.4902  19.4904  19.7613  19.7614  26.3704  26.3705
    27.5744  27.5746  33.6116

          k =-0.1667 0.5000-0.1667 (  8798 PWs)   bands (ev):

   -64.2956 -64.2955 -64.2683 -64.2682 -30.1428 -30.1427 -30.0732 -30.0731
   -30.0410 -30.0409 -29.9400 -29.9399 -29.8951 -29.8951 -29.8942 -29.8941
    15.1642  15.1644  15.8984  15.8984  15.9899  15.9899  16.2432  16.2434
    16.9164  16.9165  17.2194  17.2197  17.8778  17.8779  18.3648  18.3648
    19.4555  19.4555  19.4902  19.4904  19.7613  19.7613  26.3704  26.3705
    27.5744  27.5746  33.6118

          k =-0.5000 0.1667 0.5000 (  8844 PWs)   bands (ev):

   -64.2822 -64.2819 -64.2818 -64.2815 -30.1592 -30.1592 -30.1591 -30.1590
   -29.9548 -29.9547 -29.9543 -29.9539 -29.8810 -29.8808 -29.8806 -29.8805
    15.3408  15.3410  15.3419  15.3425  16.7075  16.7087  16.7104  16.7114
    17.5613  17.5616  17.5634  17.5648  17.5676  17.5679  17.5694  17.5702
    19.0759  19.0773  19.0805  19.0817  22.0936  22.0947  22.0966  22.0981
    29.9112  29.9115  29.9117

          k =-0.5000 0.5000 0.1667 (  8844 PWs)   bands (ev):

   -64.2823 -64.2819 -64.2818 -64.2815 -30.1593 -30.1592 -30.1590 -30.1590
   -29.9550 -29.9547 -29.9543 -29.9539 -29.8810 -29.8808 -29.8806 -29.8804
    15.3406  15.3411  15.3420  15.3425  16.7067  16.7082  16.7108  16.7123
    17.5604  17.5612  17.5631  17.5652  17.5675  17.5687  17.5699  17.5702
    19.0754  19.0773  19.0804  19.0823  22.0921  22.0941  22.0974  22.0994
    29.9110  29.9114  29.9119

     the Fermi energy is    19.8347 ev

!    total energy              =   -2048.11975829 Ry
     Harris-Foulkes estimate   =   -2048.11975880 Ry
     estimated scf accuracy    <       0.00000059 Ry

     total all-electron energy =    -40368.226472 Ry

     The total energy is the sum of the following terms:

     one-electron contribution =    -298.75459387 Ry
     hartree contribution      =     203.10427265 Ry
     xc contribution           =    -123.33975167 Ry
     ewald contribution        =    -808.20155572 Ry
     one-center paw contrib.   =   -1020.92994620 Ry
     smearing contrib. (-TS)   =       0.00181652 Ry

     convergence has been achieved in   8 iterations

     Forces acting on atoms (cartesian axes, Ry/au):

     atom    1 type  1   force =     0.00012097    0.00003948    0.00057043
     atom    2 type  1   force =    -0.00034445    0.00063006    0.00051678
     atom    3 type  1   force =     0.00018248   -0.00009052   -0.00068094
     atom    4 type  1   force =     0.00004100   -0.00057901   -0.00040627

     Total force =     0.001460     Total SCF correction =     0.000672
     SCF correction compared to forces is large: reduce conv_thr to get better values


     Computing stress (Cartesian axis) and pressure

          total   stress  (Ry/bohr**3)                   (kbar)     P=   63.20
   0.00042931   0.00000044   0.00000015         63.15      0.06      0.02
   0.00000044   0.00043014   0.00000046          0.06     63.28      0.07
   0.00000015   0.00000046   0.00042945          0.02      0.07     63.17


     Writing output data file pd_fcc_1.save/
 
     init_run     :      0.39s CPU      0.43s WALL (       1 calls)
     electrons    :      6.73s CPU      7.01s WALL (       1 calls)
     forces       :      0.07s CPU      0.07s WALL (       1 calls)
     stress       :      0.17s CPU      0.17s WALL (       1 calls)

     Called by init_run:
     wfcinit      :      0.20s CPU      0.21s WALL (       1 calls)
     potinit      :      0.08s CPU      0.08s WALL (       1 calls)
     hinit0       :      0.08s CPU      0.09s WALL (       1 calls)

     Called by electrons:
     c_bands      :      5.33s CPU      5.47s WALL (       9 calls)
     sum_band     :      0.88s CPU      0.93s WALL (       9 calls)
     v_of_rho     :      0.03s CPU      0.04s WALL (       9 calls)
     newd         :      0.07s CPU      0.09s WALL (       9 calls)
     PAW_pot      :      0.48s CPU      0.55s WALL (       9 calls)
     mix_rho      :      0.01s CPU      0.01s WALL (       9 calls)

     Called by c_bands:
     init_us_2    :      0.06s CPU      0.06s WALL (     294 calls)
     cegterg      :      5.01s CPU      5.14s WALL (     126 calls)

     Called by sum_band:
     sum_band:bec :      0.00s CPU      0.00s WALL (     126 calls)
     addusdens    :      0.06s CPU      0.08s WALL (       9 calls)

     Called by *egterg:
     h_psi        :      3.42s CPU      3.55s WALL (     405 calls)
     s_psi        :      0.10s CPU      0.10s WALL (     405 calls)
     g_psi        :      0.03s CPU      0.03s WALL (     265 calls)
     cdiaghg      :      1.02s CPU      1.03s WALL (     377 calls)

     Called by h_psi:
     h_psi:pot    :      3.39s CPU      3.52s WALL (     405 calls)
     h_psi:calbec :      0.18s CPU      0.18s WALL (     405 calls)
     vloc_psi     :      3.11s CPU      3.23s WALL (     405 calls)
     add_vuspsi   :      0.10s CPU      0.11s WALL (     405 calls)

     General routines
     calbec       :      0.27s CPU      0.28s WALL (     601 calls)
     fft          :      0.05s CPU      0.05s WALL (     126 calls)
     ffts         :      0.00s CPU      0.00s WALL (       9 calls)
     fftw         :      3.57s CPU      3.71s WALL (   31466 calls)
 
     Parallel routines
     fft_scatt_xy :      0.30s CPU      0.31s WALL (   31601 calls)
     fft_scatt_yz :      2.03s CPU      2.12s WALL (   31601 calls)
 
     PWSCF        :     8.33s CPU         8.85s WALL

 
   This run was terminated on:   7:52:55   6Apr2020            

=------------------------------------------------------------------------------=
   JOB DONE.
=------------------------------------------------------------------------------=
