
     Program PWSCF v.6.3 starts on 31Mar2020 at 18:35:35 

     This program is part of the open-source Quantum ESPRESSO suite
     for quantum simulation of materials; please cite
         "P. Giannozzi et al., J. Phys.:Condens. Matter 21 395502 (2009);
         "P. Giannozzi et al., J. Phys.:Condens. Matter 29 465901 (2017);
          URL http://www.quantum-espresso.org", 
     in publications or presentations arising from this work. More details at
     http://www.quantum-espresso.org/quote

     Parallel version (MPI & OpenMP), running on      20 processor cores
     Number of MPI processes:                20
     Threads/MPI process:                     1

     MPI processes distributed on     1 nodes
     R & G space division:  proc/nbgrp/npool/nimage =      20
     Reading input from wd/ecut/file_000142.in
Warning: card &IONS ignored
Warning: card ION_DYNAMICS = 'BFGS', ignored
Warning: card / ignored
Warning: card &CELL ignored
Warning: card CELL_DYNAMICS = 'BFGS', ignored
Warning: card CELL_FACTOR = 2.0, ignored
Warning: card PRESS = 0.0, ignored
Warning: card / ignored

     Current dimensions of program PWSCF are:
     Max number of different atomic species (ntypx) = 10
     Max number of k-points (npk) =  40000
     Max angular momentum in pseudopotentials (lmaxx) =  3
               file Pd.pbe-spn-kjpaw_psl.1.0.0.UPF: wavefunction(s)  4S 5S 4D renormalized

     Subspace diagonalization in iterative solution of the eigenvalue problem:
     a serial algorithm will be used

 
     Parallelization info
     --------------------
     sticks:   dense  smooth     PW     G-vecs:    dense   smooth      PW
     Min          99      74     21                 3314     2174     341
     Max         101      75     22                 3315     2179     344
     Sum        1993    1481    437                66299    43507    6859
 


     bravais-lattice index     =            0
     lattice parameter (alat)  =       7.3521  a.u.
     unit-cell volume          =     397.4058 (a.u.)^3
     number of atoms/cell      =            4
     number of atomic types    =            1
     number of electrons       =        72.00
     number of Kohn-Sham states=           43
     kinetic-energy cutoff     =      87.0000  Ry
     charge density cutoff     =     460.0000  Ry
     convergence threshold     =      1.0E-06
     mixing beta               =       0.1000
     number of iterations used =           10  plain     mixing
     Exchange-correlation      = SLA PW PBX PBC ( 1  4  3  4 0 0)

     celldm(1)=   7.352100  celldm(2)=   0.000000  celldm(3)=   0.000000
     celldm(4)=   0.000000  celldm(5)=   0.000000  celldm(6)=   0.000000

     crystal axes: (cart. coord. in units of alat)
               a(1) = (   1.000000   0.000000   0.000000 )  
               a(2) = (   0.000000   1.000000   0.000000 )  
               a(3) = (   0.000000   0.000000   1.000000 )  

     reciprocal axes: (cart. coord. in units 2 pi/alat)
               b(1) = (  1.000000  0.000000  0.000000 )  
               b(2) = (  0.000000  1.000000  0.000000 )  
               b(3) = (  0.000000  0.000000  1.000000 )  


     PseudoPot. # 1 for Pd read from file:
     /rds/homes/b/bxp912/pp/Pd.pbe-spn-kjpaw_psl.1.0.0.UPF
     MD5 check sum: 790f2ebce206edfd9790dcb9844eca51
     Pseudo is Projector augmented-wave + core cor, Zval = 18.0
     Generated using "atomic" code by A. Dal Corso v.6.3
     Shape of augmentation charge: PSQ
     Using radial grid of 1235 points,  6 beta functions with: 
                l(1) =   0
                l(2) =   0
                l(3) =   1
                l(4) =   1
                l(5) =   2
                l(6) =   2
     Q(r) pseudized with 0 coefficients 


     atomic species   valence    mass     pseudopotential
        Pd            18.00   106.42000     Pd( 1.00)

     No symmetry found



   Cartesian axes

     site n.     atom                  positions (alat units)
         1           Pd  tau(   1) = (  -0.0000679   0.0000198   0.0001413  )
         2           Pd  tau(   2) = (   0.5001653   0.4996054   0.0001461  )
         3           Pd  tau(   3) = (   0.4998071   0.0000633   0.5006138  )
         4           Pd  tau(   4) = (  -0.0000415   0.5004543   0.5003815  )

     number of k points=    14  Marzari-Vanderbilt smearing, width (Ry)=  0.0200
                       cart. coord. in units 2pi/alat
        k(    1) = (   0.1666667   0.1666667   0.1666667), wk =   0.1481481
        k(    2) = (   0.1666667   0.1666667  -0.5000000), wk =   0.1481481
        k(    3) = (   0.1666667  -0.5000000  -0.5000000), wk =   0.1481481
        k(    4) = (  -0.5000000  -0.5000000  -0.5000000), wk =   0.0740741
        k(    5) = (  -0.1666667  -0.1666667   0.1666667), wk =   0.1481481
        k(    6) = (  -0.1666667   0.1666667  -0.1666667), wk =   0.1481481
        k(    7) = (   0.1666667  -0.1666667  -0.1666667), wk =   0.1481481
        k(    8) = (  -0.1666667   0.1666667   0.5000000), wk =   0.1481481
        k(    9) = (  -0.5000000  -0.1666667   0.1666667), wk =   0.1481481
        k(   10) = (   0.5000000  -0.1666667  -0.1666667), wk =   0.1481481
        k(   11) = (  -0.1666667  -0.5000000   0.1666667), wk =   0.1481481
        k(   12) = (  -0.1666667   0.5000000  -0.1666667), wk =   0.1481481
        k(   13) = (  -0.5000000   0.1666667   0.5000000), wk =   0.1481481
        k(   14) = (  -0.5000000   0.5000000   0.1666667), wk =   0.1481481

     Dense  grid:    66299 G-vectors     FFT dimensions: (  54,  54,  54)

     Smooth grid:    43507 G-vectors     FFT dimensions: (  45,  45,  45)

     Estimated max dynamical RAM per process >      17.33 MB

     Estimated total dynamical RAM >     346.58 MB

     Check: negative/imaginary core charge=   -0.000002    0.000000

     Initial potential from superposition of free atoms

     starting charge   71.99847, renormalised to   72.00000
     Starting wfcs are   40 randomized atomic wfcs +    3 random wfcs
     Checking if some PAW data can be deallocated... 

     total cpu time spent up to now is        1.3 secs

     Self-consistent Calculation

     iteration #  1     ecut=    87.00 Ry     beta= 0.10
     Davidson diagonalization with overlap
     ethr =  1.00E-02,  avg # of iterations =  3.0

     Threshold (ethr) on eigenvalues was too large:
     Diagonalizing with lowered threshold

     Davidson diagonalization with overlap
     ethr =  4.65E-05,  avg # of iterations =  2.9

     total cpu time spent up to now is        2.8 secs

     total energy              =   -2048.12134228 Ry
     Harris-Foulkes estimate   =   -2048.12560940 Ry
     estimated scf accuracy    <       0.03206752 Ry

     iteration #  2     ecut=    87.00 Ry     beta= 0.10
     Davidson diagonalization with overlap
     ethr =  4.45E-05,  avg # of iterations =  1.0

     total cpu time spent up to now is        3.4 secs

     total energy              =   -2048.11506197 Ry
     Harris-Foulkes estimate   =   -2048.12180462 Ry
     estimated scf accuracy    <       0.01877178 Ry

     iteration #  3     ecut=    87.00 Ry     beta= 0.10
     Davidson diagonalization with overlap
     ethr =  2.61E-05,  avg # of iterations =  2.0

     total cpu time spent up to now is        4.0 secs

     total energy              =   -2048.11690045 Ry
     Harris-Foulkes estimate   =   -2048.11721773 Ry
     estimated scf accuracy    <       0.00274998 Ry

     iteration #  4     ecut=    87.00 Ry     beta= 0.10
     Davidson diagonalization with overlap
     ethr =  3.82E-06,  avg # of iterations =  1.1

     total cpu time spent up to now is        4.6 secs

     total energy              =   -2048.11631038 Ry
     Harris-Foulkes estimate   =   -2048.11696035 Ry
     estimated scf accuracy    <       0.00180980 Ry

     iteration #  5     ecut=    87.00 Ry     beta= 0.10
     Davidson diagonalization with overlap
     ethr =  2.51E-06,  avg # of iterations =  2.0

     total cpu time spent up to now is        5.2 secs

     total energy              =   -2048.11643873 Ry
     Harris-Foulkes estimate   =   -2048.11644469 Ry
     estimated scf accuracy    <       0.00002259 Ry

     iteration #  6     ecut=    87.00 Ry     beta= 0.10
     Davidson diagonalization with overlap
     ethr =  3.14E-08,  avg # of iterations =  3.0

     total cpu time spent up to now is        6.1 secs

     total energy              =   -2048.11644394 Ry
     Harris-Foulkes estimate   =   -2048.11644518 Ry
     estimated scf accuracy    <       0.00001164 Ry

     iteration #  7     ecut=    87.00 Ry     beta= 0.10
     Davidson diagonalization with overlap
     ethr =  1.62E-08,  avg # of iterations =  1.0

     total cpu time spent up to now is        6.7 secs

     total energy              =   -2048.11644072 Ry
     Harris-Foulkes estimate   =   -2048.11644404 Ry
     estimated scf accuracy    <       0.00000915 Ry

     iteration #  8     ecut=    87.00 Ry     beta= 0.10
     Davidson diagonalization with overlap
     ethr =  1.27E-08,  avg # of iterations =  2.5

     total cpu time spent up to now is        7.4 secs

     End of self-consistent calculation

          k = 0.1667 0.1667 0.1667 (  5443 PWs)   bands (ev):

   -64.3225 -64.2683 -64.2680 -64.2676 -30.1687 -30.1687 -30.1686 -30.0005
   -29.9999 -29.9991 -29.9517 -29.9516 -29.9513 -29.9253 -29.8360 -29.8360
    13.7056  14.9668  14.9677  14.9689  15.3427  15.3447  15.3468  16.8031
    17.2900  17.2900  18.4386  18.4398  18.4408  18.5790  18.5791  19.0271
    19.0274  19.0275  19.9912  19.9916  19.9920  23.7564  23.7573  23.7582
    30.7295  30.7314  30.7335

          k = 0.1667 0.1667-0.5000 (  5464 PWs)   bands (ev):

   -64.2954 -64.2951 -64.2679 -64.2679 -30.1424 -30.1424 -30.0731 -30.0726
   -30.0406 -30.0405 -29.9397 -29.9397 -29.8948 -29.8947 -29.8941 -29.8935
    15.1641  15.1645  15.8986  15.8986  15.9901  15.9902  16.2409  16.2462
    16.9167  16.9167  17.2164  17.2233  17.8770  17.8794  18.3651  18.3651
    19.4555  19.4563  19.4883  19.4929  19.7616  19.7617  26.3705  26.3705
    27.5749  27.5749  33.6122

          k = 0.1667-0.5000-0.5000 (  5420 PWs)   bands (ev):

   -64.2819 -64.2817 -64.2813 -64.2811 -30.1588 -30.1587 -30.1585 -30.1585
   -29.9547 -29.9545 -29.9537 -29.9535 -29.8806 -29.8806 -29.8801 -29.8800
    15.3407  15.3411  15.3424  15.3427  16.7071  16.7082  16.7114  16.7125
    17.5604  17.5612  17.5637  17.5653  17.5674  17.5691  17.5704  17.5708
    19.0755  19.0769  19.0816  19.0829  22.0926  22.0941  22.0980  22.0993
    29.9114  29.9118  29.9120

          k =-0.5000-0.5000-0.5000 (  5520 PWs)   bands (ev):

   -64.2818 -64.2817 -64.2813 -64.2810 -30.2326 -30.2326 -30.2325 -30.2325
   -29.8806 -29.8805 -29.8805 -29.8804 -29.8802 -29.8801 -29.8801 -29.8800
    14.5885  14.5886  14.5887  14.5888  16.9862  16.9862  16.9863  16.9863
    16.9864  16.9864  16.9864  16.9865  19.8458  19.8458  19.8458  19.8459
    19.8459  19.8459  19.8460  19.8460  20.9442  20.9443  20.9448  20.9450
    27.2337  27.2338  27.2341

          k =-0.1667-0.1667 0.1667 (  5443 PWs)   bands (ev):

   -64.3225 -64.2683 -64.2680 -64.2676 -30.1687 -30.1687 -30.1686 -30.0004
   -29.9999 -29.9992 -29.9517 -29.9514 -29.9513 -29.9254 -29.8360 -29.8359
    13.7056  14.9670  14.9677  14.9686  15.3431  15.3447  15.3464  16.8031
    17.2900  17.2900  18.4389  18.4397  18.4406  18.5790  18.5791  19.0271
    19.0273  19.0274  19.9913  19.9916  19.9920  23.7566  23.7573  23.7580
    30.7299  30.7315  30.7331

          k =-0.1667 0.1667-0.1667 (  5443 PWs)   bands (ev):

   -64.3225 -64.2683 -64.2680 -64.2676 -30.1687 -30.1686 -30.1686 -30.0004
   -29.9998 -29.9994 -29.9516 -29.9515 -29.9513 -29.9254 -29.8360 -29.8359
    13.7056  14.9671  14.9679  14.9684  15.3435  15.3448  15.3459  16.8031
    17.2900  17.2900  18.4391  18.4397  18.4404  18.5790  18.5791  19.0272
    19.0273  19.0274  19.9914  19.9917  19.9919  23.7568  23.7573  23.7578
    30.7303  30.7315  30.7326

          k = 0.1667-0.1667-0.1667 (  5443 PWs)   bands (ev):

   -64.3225 -64.2683 -64.2680 -64.2676 -30.1687 -30.1686 -30.1686 -30.0003
   -29.9999 -29.9993 -29.9517 -29.9515 -29.9513 -29.9254 -29.8360 -29.8359
    13.7056  14.9671  14.9678  14.9685  15.3433  15.3448  15.3462  16.8031
    17.2900  17.2900  18.4390  18.4398  18.4405  18.5790  18.5790  19.0272
    19.0273  19.0274  19.9914  19.9917  19.9919  23.7567  23.7573  23.7579
    30.7301  30.7315  30.7329

          k =-0.1667 0.1667 0.5000 (  5464 PWs)   bands (ev):

   -64.2954 -64.2951 -64.2679 -64.2679 -30.1424 -30.1423 -30.0731 -30.0726
   -30.0406 -30.0406 -29.9397 -29.9397 -29.8948 -29.8947 -29.8941 -29.8934
    15.1642  15.1646  15.8986  15.8986  15.9901  15.9902  16.2409  16.2461
    16.9167  16.9167  17.2165  17.2233  17.8770  17.8794  18.3651  18.3651
    19.4555  19.4564  19.4882  19.4929  19.7616  19.7617  26.3705  26.3705
    27.5749  27.5749  33.6122

          k =-0.5000-0.1667 0.1667 (  5464 PWs)   bands (ev):

   -64.2955 -64.2949 -64.2682 -64.2676 -30.1424 -30.1423 -30.0730 -30.0727
   -30.0407 -30.0404 -29.9399 -29.9395 -29.8948 -29.8948 -29.8939 -29.8936
    15.1641  15.1646  15.8984  15.8988  15.9901  15.9902  16.2432  16.2439
    16.9166  16.9168  17.2195  17.2203  17.8781  17.8784  18.3650  18.3652
    19.4558  19.4560  19.4903  19.4908  19.7616  19.7617  26.3702  26.3708
    27.5747  27.5751  33.6122

          k = 0.5000-0.1667-0.1667 (  5464 PWs)   bands (ev):

   -64.2955 -64.2949 -64.2682 -64.2676 -30.1424 -30.1424 -30.0730 -30.0726
   -30.0407 -30.0404 -29.9399 -29.9395 -29.8948 -29.8948 -29.8939 -29.8936
    15.1641  15.1646  15.8984  15.8988  15.9901  15.9902  16.2432  16.2439
    16.9166  16.9168  17.2195  17.2203  17.8781  17.8784  18.3650  18.3652
    19.4558  19.4560  19.4903  19.4908  19.7616  19.7617  26.3702  26.3708
    27.5747  27.5751  33.6119

          k =-0.1667-0.5000 0.1667 (  5464 PWs)   bands (ev):

   -64.2953 -64.2951 -64.2680 -64.2678 -30.1424 -30.1424 -30.0729 -30.0727
   -30.0406 -30.0405 -29.9398 -29.9396 -29.8948 -29.8947 -29.8939 -29.8937
    15.1643  15.1644  15.8986  15.8986  15.9901  15.9902  16.2434  16.2436
    16.9167  16.9167  17.2198  17.2200  17.8782  17.8783  18.3650  18.3652
    19.4559  19.4559  19.4905  19.4906  19.7616  19.7617  26.3704  26.3706
    27.5748  27.5750  33.6121

          k =-0.1667 0.5000-0.1667 (  5464 PWs)   bands (ev):

   -64.2953 -64.2951 -64.2680 -64.2678 -30.1424 -30.1424 -30.0729 -30.0727
   -30.0406 -30.0405 -29.9398 -29.9396 -29.8948 -29.8947 -29.8939 -29.8938
    15.1643  15.1644  15.8986  15.8986  15.9901  15.9902  16.2434  16.2436
    16.9167  16.9168  17.2198  17.2200  17.8782  17.8783  18.3651  18.3652
    19.4559  19.4559  19.4905  19.4907  19.7616  19.7617  26.3704  26.3706
    27.5748  27.5749  33.6121

          k =-0.5000 0.1667 0.5000 (  5420 PWs)   bands (ev):

   -64.2819 -64.2817 -64.2814 -64.2811 -30.1587 -30.1587 -30.1586 -30.1585
   -29.9545 -29.9543 -29.9539 -29.9535 -29.8807 -29.8804 -29.8802 -29.8801
    15.3410  15.3412  15.3421  15.3427  16.7078  16.7090  16.7107  16.7117
    17.5615  17.5618  17.5636  17.5650  17.5680  17.5682  17.5697  17.5705
    19.0762  19.0777  19.0808  19.0821  22.0938  22.0949  22.0968  22.0984
    29.9115  29.9115  29.9118

          k =-0.5000 0.5000 0.1667 (  5420 PWs)   bands (ev):

   -64.2819 -64.2817 -64.2814 -64.2811 -30.1588 -30.1587 -30.1586 -30.1585
   -29.9546 -29.9543 -29.9539 -29.9535 -29.8807 -29.8804 -29.8802 -29.8800
    15.3408  15.3413  15.3422  15.3427  16.7070  16.7085  16.7111  16.7126
    17.5606  17.5614  17.5634  17.5654  17.5678  17.5690  17.5702  17.5705
    19.0758  19.0776  19.0808  19.0827  22.0923  22.0943  22.0976  22.0996
    29.9113  29.9116  29.9119

     the Fermi energy is    19.8351 ev

!    total energy              =   -2048.11644262 Ry
     Harris-Foulkes estimate   =   -2048.11644201 Ry
     estimated scf accuracy    <       0.00000047 Ry

     total all-electron energy =    -40368.223156 Ry

     The total energy is the sum of the following terms:

     one-electron contribution =    -298.74856743 Ry
     hartree contribution      =     203.10110452 Ry
     xc contribution           =    -123.33858108 Ry
     ewald contribution        =    -808.20155572 Ry
     one-center paw contrib.   =   -1020.93066112 Ry
     smearing contrib. (-TS)   =       0.00181822 Ry

     convergence has been achieved in   8 iterations

     Forces acting on atoms (cartesian axes, Ry/au):

     atom    1 type  1   force =     0.00012501    0.00003443    0.00056097
     atom    2 type  1   force =    -0.00035025    0.00063480    0.00051465
     atom    3 type  1   force =     0.00018306   -0.00009404   -0.00067808
     atom    4 type  1   force =     0.00004219   -0.00057519   -0.00039754

     Total force =     0.001454     Total SCF correction =     0.000698
     SCF correction compared to forces is large: reduce conv_thr to get better values


     Computing stress (Cartesian axis) and pressure

          total   stress  (Ry/bohr**3)                   (kbar)     P=   59.08
   0.00040129   0.00000041   0.00000005         59.03      0.06      0.01
   0.00000041   0.00040205   0.00000050          0.06     59.14      0.07
   0.00000005   0.00000050   0.00040142          0.01      0.07     59.05


     Writing output data file pd_fcc_1.save/
 
     init_run     :      0.35s CPU      0.42s WALL (       1 calls)
     electrons    :      5.87s CPU      6.15s WALL (       1 calls)
     forces       :      0.07s CPU      0.07s WALL (       1 calls)
     stress       :      0.17s CPU      0.17s WALL (       1 calls)

     Called by init_run:
     wfcinit      :      0.17s CPU      0.18s WALL (       1 calls)
     potinit      :      0.09s CPU      0.10s WALL (       1 calls)
     hinit0       :      0.07s CPU      0.09s WALL (       1 calls)

     Called by electrons:
     c_bands      :      4.52s CPU      4.67s WALL (       9 calls)
     sum_band     :      0.77s CPU      0.82s WALL (       9 calls)
     v_of_rho     :      0.05s CPU      0.06s WALL (       9 calls)
     newd         :      0.10s CPU      0.12s WALL (       9 calls)
     PAW_pot      :      0.50s CPU      0.53s WALL (       9 calls)
     mix_rho      :      0.01s CPU      0.01s WALL (       9 calls)

     Called by c_bands:
     init_us_2    :      0.04s CPU      0.04s WALL (     294 calls)
     cegterg      :      4.31s CPU      4.46s WALL (     126 calls)

     Called by sum_band:
     sum_band:bec :      0.00s CPU      0.00s WALL (     126 calls)
     addusdens    :      0.10s CPU      0.12s WALL (       9 calls)

     Called by *egterg:
     h_psi        :      2.96s CPU      3.10s WALL (     400 calls)
     s_psi        :      0.06s CPU      0.06s WALL (     400 calls)
     g_psi        :      0.02s CPU      0.02s WALL (     260 calls)
     cdiaghg      :      0.98s CPU      0.99s WALL (     372 calls)

     Called by h_psi:
     h_psi:pot    :      2.94s CPU      3.08s WALL (     400 calls)
     h_psi:calbec :      0.17s CPU      0.17s WALL (     400 calls)
     vloc_psi     :      2.70s CPU      2.84s WALL (     400 calls)
     add_vuspsi   :      0.07s CPU      0.07s WALL (     400 calls)

     General routines
     calbec       :      0.25s CPU      0.25s WALL (     596 calls)
     fft          :      0.07s CPU      0.08s WALL (     142 calls)
     ffts         :      0.00s CPU      0.00s WALL (      18 calls)
     fftw         :      3.04s CPU      3.20s WALL (   31308 calls)
     interpolate  :      0.01s CPU      0.01s WALL (       9 calls)
 
     Parallel routines
     fft_scatt_xy :      0.29s CPU      0.30s WALL (   31468 calls)
     fft_scatt_yz :      1.62s CPU      1.72s WALL (   31468 calls)
 
     PWSCF        :     7.41s CPU         7.87s WALL

 
   This run was terminated on:  18:35:43  31Mar2020            

=------------------------------------------------------------------------------=
   JOB DONE.
=------------------------------------------------------------------------------=
