
     Program PWSCF v.6.3 starts on 31Mar2020 at 18:35: 9 

     This program is part of the open-source Quantum ESPRESSO suite
     for quantum simulation of materials; please cite
         "P. Giannozzi et al., J. Phys.:Condens. Matter 21 395502 (2009);
         "P. Giannozzi et al., J. Phys.:Condens. Matter 29 465901 (2017);
          URL http://www.quantum-espresso.org", 
     in publications or presentations arising from this work. More details at
     http://www.quantum-espresso.org/quote

     Parallel version (MPI & OpenMP), running on      20 processor cores
     Number of MPI processes:                20
     Threads/MPI process:                     1

     MPI processes distributed on     1 nodes
     R & G space division:  proc/nbgrp/npool/nimage =      20
     Reading input from wd/ecut/file_000139.in
Warning: card &IONS ignored
Warning: card ION_DYNAMICS = 'BFGS', ignored
Warning: card / ignored
Warning: card &CELL ignored
Warning: card CELL_DYNAMICS = 'BFGS', ignored
Warning: card CELL_FACTOR = 2.0, ignored
Warning: card PRESS = 0.0, ignored
Warning: card / ignored

     Current dimensions of program PWSCF are:
     Max number of different atomic species (ntypx) = 10
     Max number of k-points (npk) =  40000
     Max angular momentum in pseudopotentials (lmaxx) =  3
               file Pd.pbe-spn-kjpaw_psl.1.0.0.UPF: wavefunction(s)  4S 5S 4D renormalized

     Subspace diagonalization in iterative solution of the eigenvalue problem:
     a serial algorithm will be used

 
     Parallelization info
     --------------------
     sticks:   dense  smooth     PW     G-vecs:    dense   smooth      PW
     Min          99      77     21                 3314     2289     353
     Max         101      78     22                 3315     2294     358
     Sum        1993    1549    437                66299    45817    7123
 


     bravais-lattice index     =            0
     lattice parameter (alat)  =       7.3521  a.u.
     unit-cell volume          =     397.4058 (a.u.)^3
     number of atoms/cell      =            4
     number of atomic types    =            1
     number of electrons       =        72.00
     number of Kohn-Sham states=           43
     kinetic-energy cutoff     =      90.0000  Ry
     charge density cutoff     =     460.0000  Ry
     convergence threshold     =      1.0E-06
     mixing beta               =       0.1000
     number of iterations used =           10  plain     mixing
     Exchange-correlation      = SLA PW PBX PBC ( 1  4  3  4 0 0)

     celldm(1)=   7.352100  celldm(2)=   0.000000  celldm(3)=   0.000000
     celldm(4)=   0.000000  celldm(5)=   0.000000  celldm(6)=   0.000000

     crystal axes: (cart. coord. in units of alat)
               a(1) = (   1.000000   0.000000   0.000000 )  
               a(2) = (   0.000000   1.000000   0.000000 )  
               a(3) = (   0.000000   0.000000   1.000000 )  

     reciprocal axes: (cart. coord. in units 2 pi/alat)
               b(1) = (  1.000000  0.000000  0.000000 )  
               b(2) = (  0.000000  1.000000  0.000000 )  
               b(3) = (  0.000000  0.000000  1.000000 )  


     PseudoPot. # 1 for Pd read from file:
     /rds/homes/b/bxp912/pp/Pd.pbe-spn-kjpaw_psl.1.0.0.UPF
     MD5 check sum: 790f2ebce206edfd9790dcb9844eca51
     Pseudo is Projector augmented-wave + core cor, Zval = 18.0
     Generated using "atomic" code by A. Dal Corso v.6.3
     Shape of augmentation charge: PSQ
     Using radial grid of 1235 points,  6 beta functions with: 
                l(1) =   0
                l(2) =   0
                l(3) =   1
                l(4) =   1
                l(5) =   2
                l(6) =   2
     Q(r) pseudized with 0 coefficients 


     atomic species   valence    mass     pseudopotential
        Pd            18.00   106.42000     Pd( 1.00)

     No symmetry found



   Cartesian axes

     site n.     atom                  positions (alat units)
         1           Pd  tau(   1) = (  -0.0000679   0.0000198   0.0001413  )
         2           Pd  tau(   2) = (   0.5001653   0.4996054   0.0001461  )
         3           Pd  tau(   3) = (   0.4998071   0.0000633   0.5006138  )
         4           Pd  tau(   4) = (  -0.0000415   0.5004543   0.5003815  )

     number of k points=    14  Marzari-Vanderbilt smearing, width (Ry)=  0.0200
                       cart. coord. in units 2pi/alat
        k(    1) = (   0.1666667   0.1666667   0.1666667), wk =   0.1481481
        k(    2) = (   0.1666667   0.1666667  -0.5000000), wk =   0.1481481
        k(    3) = (   0.1666667  -0.5000000  -0.5000000), wk =   0.1481481
        k(    4) = (  -0.5000000  -0.5000000  -0.5000000), wk =   0.0740741
        k(    5) = (  -0.1666667  -0.1666667   0.1666667), wk =   0.1481481
        k(    6) = (  -0.1666667   0.1666667  -0.1666667), wk =   0.1481481
        k(    7) = (   0.1666667  -0.1666667  -0.1666667), wk =   0.1481481
        k(    8) = (  -0.1666667   0.1666667   0.5000000), wk =   0.1481481
        k(    9) = (  -0.5000000  -0.1666667   0.1666667), wk =   0.1481481
        k(   10) = (   0.5000000  -0.1666667  -0.1666667), wk =   0.1481481
        k(   11) = (  -0.1666667  -0.5000000   0.1666667), wk =   0.1481481
        k(   12) = (  -0.1666667   0.5000000  -0.1666667), wk =   0.1481481
        k(   13) = (  -0.5000000   0.1666667   0.5000000), wk =   0.1481481
        k(   14) = (  -0.5000000   0.5000000   0.1666667), wk =   0.1481481

     Dense  grid:    66299 G-vectors     FFT dimensions: (  54,  54,  54)

     Smooth grid:    45817 G-vectors     FFT dimensions: (  45,  45,  45)

     Estimated max dynamical RAM per process >      17.48 MB

     Estimated total dynamical RAM >     349.66 MB

     Check: negative/imaginary core charge=   -0.000002    0.000000

     Initial potential from superposition of free atoms

     starting charge   71.99847, renormalised to   72.00000
     Starting wfcs are   40 randomized atomic wfcs +    3 random wfcs
     Checking if some PAW data can be deallocated... 

     total cpu time spent up to now is        1.3 secs

     Self-consistent Calculation

     iteration #  1     ecut=    90.00 Ry     beta= 0.10
     Davidson diagonalization with overlap
     ethr =  1.00E-02,  avg # of iterations =  3.0

     Threshold (ethr) on eigenvalues was too large:
     Diagonalizing with lowered threshold

     Davidson diagonalization with overlap
     ethr =  4.66E-05,  avg # of iterations =  2.9

     total cpu time spent up to now is        2.8 secs

     total energy              =   -2048.12197628 Ry
     Harris-Foulkes estimate   =   -2048.12624454 Ry
     estimated scf accuracy    <       0.03208738 Ry

     iteration #  2     ecut=    90.00 Ry     beta= 0.10
     Davidson diagonalization with overlap
     ethr =  4.46E-05,  avg # of iterations =  1.0

     total cpu time spent up to now is        3.4 secs

     total energy              =   -2048.11569466 Ry
     Harris-Foulkes estimate   =   -2048.12244113 Ry
     estimated scf accuracy    <       0.01878629 Ry

     iteration #  3     ecut=    90.00 Ry     beta= 0.10
     Davidson diagonalization with overlap
     ethr =  2.61E-05,  avg # of iterations =  2.0

     total cpu time spent up to now is        4.0 secs

     total energy              =   -2048.11753073 Ry
     Harris-Foulkes estimate   =   -2048.11784974 Ry
     estimated scf accuracy    <       0.00275365 Ry

     iteration #  4     ecut=    90.00 Ry     beta= 0.10
     Davidson diagonalization with overlap
     ethr =  3.82E-06,  avg # of iterations =  1.1

     total cpu time spent up to now is        4.6 secs

     total energy              =   -2048.11693911 Ry
     Harris-Foulkes estimate   =   -2048.11759112 Ry
     estimated scf accuracy    <       0.00181080 Ry

     iteration #  5     ecut=    90.00 Ry     beta= 0.10
     Davidson diagonalization with overlap
     ethr =  2.52E-06,  avg # of iterations =  2.0

     total cpu time spent up to now is        5.3 secs

     total energy              =   -2048.11706841 Ry
     Harris-Foulkes estimate   =   -2048.11707446 Ry
     estimated scf accuracy    <       0.00002287 Ry

     iteration #  6     ecut=    90.00 Ry     beta= 0.10
     Davidson diagonalization with overlap
     ethr =  3.18E-08,  avg # of iterations =  3.1

     total cpu time spent up to now is        6.1 secs

     total energy              =   -2048.11707376 Ry
     Harris-Foulkes estimate   =   -2048.11707501 Ry
     estimated scf accuracy    <       0.00001190 Ry

     iteration #  7     ecut=    90.00 Ry     beta= 0.10
     Davidson diagonalization with overlap
     ethr =  1.65E-08,  avg # of iterations =  1.0

     total cpu time spent up to now is        6.7 secs

     total energy              =   -2048.11707030 Ry
     Harris-Foulkes estimate   =   -2048.11707384 Ry
     estimated scf accuracy    <       0.00000949 Ry

     iteration #  8     ecut=    90.00 Ry     beta= 0.10
     Davidson diagonalization with overlap
     ethr =  1.32E-08,  avg # of iterations =  2.6

     total cpu time spent up to now is        7.5 secs

     End of self-consistent calculation

          k = 0.1667 0.1667 0.1667 (  5731 PWs)   bands (ev):

   -64.3227 -64.2685 -64.2682 -64.2678 -30.1690 -30.1690 -30.1689 -30.0007
   -30.0002 -29.9993 -29.9519 -29.9518 -29.9516 -29.9256 -29.8362 -29.8362
    13.7056  14.9668  14.9676  14.9688  15.3427  15.3447  15.3468  16.8031
    17.2899  17.2900  18.4386  18.4398  18.4408  18.5789  18.5790  19.0271
    19.0273  19.0274  19.9912  19.9916  19.9919  23.7564  23.7572  23.7581
    30.7294  30.7313  30.7334

          k = 0.1667 0.1667-0.5000 (  5712 PWs)   bands (ev):

   -64.2956 -64.2953 -64.2681 -64.2681 -30.1426 -30.1426 -30.0733 -30.0728
   -30.0409 -30.0408 -29.9399 -29.9399 -29.8951 -29.8950 -29.8943 -29.8937
    15.1641  15.1645  15.8985  15.8986  15.9901  15.9902  16.2409  16.2461
    16.9167  16.9167  17.2164  17.2233  17.8770  17.8794  18.3651  18.3651
    19.4554  19.4563  19.4882  19.4929  19.7616  19.7616  26.3704  26.3705
    27.5748  27.5748  33.6121

          k = 0.1667-0.5000-0.5000 (  5748 PWs)   bands (ev):

   -64.2821 -64.2819 -64.2815 -64.2813 -30.1591 -30.1591 -30.1589 -30.1589
   -29.9550 -29.9548 -29.9539 -29.9538 -29.8809 -29.8809 -29.8804 -29.8803
    15.3407  15.3411  15.3424  15.3427  16.7071  16.7082  16.7113  16.7124
    17.5604  17.5611  17.5636  17.5652  17.5673  17.5691  17.5703  17.5707
    19.0755  19.0768  19.0815  19.0828  22.0925  22.0940  22.0979  22.0992
    29.9112  29.9116  29.9120

          k =-0.5000-0.5000-0.5000 (  5832 PWs)   bands (ev):

   -64.2821 -64.2819 -64.2815 -64.2812 -30.2330 -30.2329 -30.2329 -30.2328
   -29.8808 -29.8807 -29.8807 -29.8806 -29.8804 -29.8804 -29.8803 -29.8802
    14.5884  14.5885  14.5886  14.5887  16.9862  16.9862  16.9862  16.9863
    16.9863  16.9863  16.9864  16.9865  19.8457  19.8457  19.8457  19.8458
    19.8458  19.8458  19.8459  19.8459  20.9442  20.9443  20.9447  20.9450
    27.2336  27.2337  27.2340

          k =-0.1667-0.1667 0.1667 (  5731 PWs)   bands (ev):

   -64.3227 -64.2685 -64.2682 -64.2678 -30.1690 -30.1690 -30.1689 -30.0006
   -30.0002 -29.9995 -29.9520 -29.9517 -29.9516 -29.9256 -29.8362 -29.8361
    13.7056  14.9670  14.9677  14.9686  15.3431  15.3447  15.3463  16.8031
    17.2900  17.2900  18.4388  18.4397  18.4406  18.5790  18.5790  19.0271
    19.0273  19.0273  19.9913  19.9916  19.9919  23.7565  23.7572  23.7579
    30.7298  30.7314  30.7330

          k =-0.1667 0.1667-0.1667 (  5731 PWs)   bands (ev):

   -64.3227 -64.2685 -64.2682 -64.2678 -30.1690 -30.1689 -30.1689 -30.0006
   -30.0001 -29.9997 -29.9519 -29.9517 -29.9516 -29.9257 -29.8362 -29.8361
    13.7056  14.9671  14.9678  14.9683  15.3435  15.3447  15.3459  16.8031
    17.2900  17.2900  18.4390  18.4397  18.4403  18.5790  18.5790  19.0271
    19.0272  19.0274  19.9914  19.9916  19.9918  23.7567  23.7573  23.7577
    30.7302  30.7314  30.7325

          k = 0.1667-0.1667-0.1667 (  5731 PWs)   bands (ev):

   -64.3227 -64.2685 -64.2682 -64.2678 -30.1690 -30.1689 -30.1689 -30.0006
   -30.0001 -29.9996 -29.9519 -29.9518 -29.9515 -29.9256 -29.8362 -29.8361
    13.7056  14.9670  14.9677  14.9685  15.3433  15.3447  15.3461  16.8031
    17.2900  17.2900  18.4389  18.4397  18.4405  18.5789  18.5790  19.0271
    19.0272  19.0274  19.9913  19.9916  19.9919  23.7566  23.7572  23.7579
    30.7300  30.7314  30.7328

          k =-0.1667 0.1667 0.5000 (  5712 PWs)   bands (ev):

   -64.2956 -64.2953 -64.2681 -64.2681 -30.1426 -30.1425 -30.0733 -30.0728
   -30.0409 -30.0409 -29.9399 -29.9398 -29.8951 -29.8950 -29.8943 -29.8937
    15.1641  15.1645  15.8986  15.8986  15.9901  15.9901  16.2409  16.2461
    16.9166  16.9167  17.2164  17.2233  17.8770  17.8794  18.3650  18.3651
    19.4555  19.4563  19.4882  19.4928  19.7616  19.7617  26.3704  26.3705
    27.5748  27.5748  33.6121

          k =-0.5000-0.1667 0.1667 (  5712 PWs)   bands (ev):

   -64.2957 -64.2951 -64.2684 -64.2678 -30.1426 -30.1425 -30.0733 -30.0729
   -30.0410 -30.0407 -29.9401 -29.9396 -29.8950 -29.8950 -29.8942 -29.8938
    15.1641  15.1646  15.8984  15.8988  15.9901  15.9902  16.2432  16.2439
    16.9166  16.9167  17.2194  17.2202  17.8780  17.8784  18.3649  18.3652
    19.4558  19.4560  19.4903  19.4908  19.7616  19.7617  26.3702  26.3707
    27.5746  27.5750  33.6120

          k = 0.5000-0.1667-0.1667 (  5712 PWs)   bands (ev):

   -64.2957 -64.2951 -64.2684 -64.2678 -30.1427 -30.1426 -30.0733 -30.0729
   -30.0410 -30.0407 -29.9401 -29.9396 -29.8950 -29.8950 -29.8942 -29.8939
    15.1641  15.1646  15.8984  15.8988  15.9901  15.9902  16.2431  16.2439
    16.9166  16.9168  17.2194  17.2202  17.8780  17.8784  18.3649  18.3652
    19.4558  19.4559  19.4902  19.4908  19.7616  19.7617  26.3702  26.3707
    27.5746  27.5750  33.6118

          k =-0.1667-0.5000 0.1667 (  5712 PWs)   bands (ev):

   -64.2955 -64.2953 -64.2682 -64.2680 -30.1426 -30.1426 -30.0731 -30.0730
   -30.0409 -30.0408 -29.9399 -29.9397 -29.8950 -29.8950 -29.8941 -29.8940
    15.1643  15.1644  15.8985  15.8986  15.9901  15.9902  16.2434  16.2436
    16.9166  16.9167  17.2197  17.2200  17.8781  17.8782  18.3650  18.3651
    19.4558  19.4559  19.4904  19.4906  19.7616  19.7617  26.3704  26.3705
    27.5747  27.5749  33.6120

          k =-0.1667 0.5000-0.1667 (  5712 PWs)   bands (ev):

   -64.2955 -64.2953 -64.2682 -64.2680 -30.1426 -30.1426 -30.0731 -30.0730
   -30.0409 -30.0408 -29.9399 -29.9397 -29.8950 -29.8950 -29.8941 -29.8940
    15.1643  15.1644  15.8985  15.8986  15.9901  15.9902  16.2434  16.2436
    16.9166  16.9167  17.2197  17.2200  17.8781  17.8782  18.3650  18.3651
    19.4558  19.4559  19.4904  19.4906  19.7616  19.7616  26.3704  26.3705
    27.5747  27.5749  33.6121

          k =-0.5000 0.1667 0.5000 (  5748 PWs)   bands (ev):

   -64.2821 -64.2819 -64.2816 -64.2813 -30.1591 -30.1591 -30.1590 -30.1589
   -29.9547 -29.9546 -29.9542 -29.9538 -29.8810 -29.8807 -29.8805 -29.8804
    15.3410  15.3412  15.3421  15.3426  16.7078  16.7090  16.7107  16.7116
    17.5615  17.5617  17.5635  17.5650  17.5679  17.5681  17.5696  17.5705
    19.0762  19.0776  19.0807  19.0820  22.0937  22.0949  22.0967  22.0983
    29.9114  29.9115  29.9120

          k =-0.5000 0.5000 0.1667 (  5748 PWs)   bands (ev):

   -64.2822 -64.2819 -64.2816 -64.2813 -30.1592 -30.1591 -30.1589 -30.1589
   -29.9549 -29.9546 -29.9541 -29.9538 -29.8809 -29.8807 -29.8805 -29.8803
    15.3407  15.3413  15.3421  15.3427  16.7070  16.7085  16.7110  16.7126
    17.5605  17.5613  17.5633  17.5654  17.5678  17.5690  17.5701  17.5704
    19.0757  19.0776  19.0807  19.0826  22.0923  22.0943  22.0976  22.0995
    29.9112  29.9117  29.9119

     the Fermi energy is    19.8350 ev

!    total energy              =   -2048.11707199 Ry
     Harris-Foulkes estimate   =   -2048.11707166 Ry
     estimated scf accuracy    <       0.00000050 Ry

     total all-electron energy =    -40368.223785 Ry

     The total energy is the sum of the following terms:

     one-electron contribution =    -298.75006710 Ry
     hartree contribution      =     203.10165748 Ry
     xc contribution           =    -123.33868128 Ry
     ewald contribution        =    -808.20155572 Ry
     one-center paw contrib.   =   -1020.93024316 Ry
     smearing contrib. (-TS)   =       0.00181779 Ry

     convergence has been achieved in   8 iterations

     Forces acting on atoms (cartesian axes, Ry/au):

     atom    1 type  1   force =     0.00012055    0.00003637    0.00056125
     atom    2 type  1   force =    -0.00034158    0.00062654    0.00051032
     atom    3 type  1   force =     0.00018137   -0.00008975   -0.00067318
     atom    4 type  1   force =     0.00003966   -0.00057316   -0.00039838

     Total force =     0.001443     Total SCF correction =     0.000787
     SCF correction compared to forces is large: reduce conv_thr to get better values


     Computing stress (Cartesian axis) and pressure

          total   stress  (Ry/bohr**3)                   (kbar)     P=   59.74
   0.00040581   0.00000038   0.00000006         59.70      0.06      0.01
   0.00000038   0.00040661   0.00000048          0.06     59.81      0.07
   0.00000006   0.00000048   0.00040597          0.01      0.07     59.72


     Writing output data file pd_fcc_1.save/
 
     init_run     :      0.32s CPU      0.39s WALL (       1 calls)
     electrons    :      5.95s CPU      6.19s WALL (       1 calls)
     forces       :      0.07s CPU      0.08s WALL (       1 calls)
     stress       :      0.17s CPU      0.18s WALL (       1 calls)

     Called by init_run:
     wfcinit      :      0.16s CPU      0.18s WALL (       1 calls)
     potinit      :      0.07s CPU      0.09s WALL (       1 calls)
     hinit0       :      0.06s CPU      0.07s WALL (       1 calls)

     Called by electrons:
     c_bands      :      4.56s CPU      4.69s WALL (       9 calls)
     sum_band     :      0.77s CPU      0.83s WALL (       9 calls)
     v_of_rho     :      0.05s CPU      0.06s WALL (       9 calls)
     newd         :      0.10s CPU      0.12s WALL (       9 calls)
     PAW_pot      :      0.48s CPU      0.53s WALL (       9 calls)
     mix_rho      :      0.01s CPU      0.01s WALL (       9 calls)

     Called by c_bands:
     init_us_2    :      0.05s CPU      0.05s WALL (     294 calls)
     cegterg      :      4.34s CPU      4.46s WALL (     126 calls)

     Called by sum_band:
     sum_band:bec :      0.00s CPU      0.00s WALL (     126 calls)
     addusdens    :      0.09s CPU      0.11s WALL (       9 calls)

     Called by *egterg:
     h_psi        :      2.95s CPU      3.08s WALL (     402 calls)
     s_psi        :      0.07s CPU      0.07s WALL (     402 calls)
     g_psi        :      0.02s CPU      0.02s WALL (     262 calls)
     cdiaghg      :      1.00s CPU      1.00s WALL (     374 calls)

     Called by h_psi:
     h_psi:pot    :      2.93s CPU      3.06s WALL (     402 calls)
     h_psi:calbec :      0.14s CPU      0.15s WALL (     402 calls)
     vloc_psi     :      2.71s CPU      2.83s WALL (     402 calls)
     add_vuspsi   :      0.07s CPU      0.08s WALL (     402 calls)

     General routines
     calbec       :      0.23s CPU      0.23s WALL (     598 calls)
     fft          :      0.07s CPU      0.08s WALL (     142 calls)
     ffts         :      0.00s CPU      0.00s WALL (      18 calls)
     fftw         :      3.04s CPU      3.18s WALL (   31360 calls)
     interpolate  :      0.01s CPU      0.01s WALL (       9 calls)
 
     Parallel routines
     fft_scatt_xy :      0.29s CPU      0.30s WALL (   31520 calls)
     fft_scatt_yz :      1.60s CPU      1.69s WALL (   31520 calls)
 
     PWSCF        :     7.52s CPU         7.94s WALL

 
   This run was terminated on:  18:35:17  31Mar2020            

=------------------------------------------------------------------------------=
   JOB DONE.
=------------------------------------------------------------------------------=
