
     Program PWSCF v.6.3 starts on 27May2020 at  7:21:39 

     This program is part of the open-source Quantum ESPRESSO suite
     for quantum simulation of materials; please cite
         "P. Giannozzi et al., J. Phys.:Condens. Matter 21 395502 (2009);
         "P. Giannozzi et al., J. Phys.:Condens. Matter 29 465901 (2017);
          URL http://www.quantum-espresso.org", 
     in publications or presentations arising from this work. More details at
     http://www.quantum-espresso.org/quote

     Parallel version (MPI & OpenMP), running on      20 processor cores
     Number of MPI processes:                20
     Threads/MPI process:                     1

     MPI processes distributed on     1 nodes
     R & G space division:  proc/nbgrp/npool/nimage =      20
     Reading input from wd/ecut/file_000208.in
Warning: card &IONS ignored
Warning: card ION_DYNAMICS = 'BFGS', ignored
Warning: card / ignored
Warning: card &CELL ignored
Warning: card CELL_DYNAMICS = 'BFGS', ignored
Warning: card CELL_FACTOR = 2.0, ignored
Warning: card PRESS = 0.0, ignored
Warning: card / ignored

     Current dimensions of program PWSCF are:
     Max number of different atomic species (ntypx) = 10
     Max number of k-points (npk) =  40000
     Max angular momentum in pseudopotentials (lmaxx) =  3
               file Pd.pbe-spn-kjpaw_psl.1.0.0.UPF: wavefunction(s)  4S 5S 4D renormalized

     Subspace diagonalization in iterative solution of the eigenvalue problem:
     a serial algorithm will be used

 
     Parallelization info
     --------------------
     sticks:   dense  smooth     PW     G-vecs:    dense   smooth      PW
     Min          71      71     29                 2011     2011     539
     Max          72      72     30                 2014     2014     542
     Sum        1425    1425    593                40243    40243   10827
 


     bravais-lattice index     =            0
     lattice parameter (alat)  =       7.3521  a.u.
     unit-cell volume          =     397.4058 (a.u.)^3
     number of atoms/cell      =            4
     number of atomic types    =            1
     number of electrons       =        72.00
     number of Kohn-Sham states=           43
     kinetic-energy cutoff     =     120.0000  Ry
     charge density cutoff     =     330.0000  Ry
     convergence threshold     =      1.0E-06
     mixing beta               =       0.1000
     number of iterations used =           10  plain     mixing
     Exchange-correlation      = SLA PW PBX PBC ( 1  4  3  4 0 0)

     celldm(1)=   7.352100  celldm(2)=   0.000000  celldm(3)=   0.000000
     celldm(4)=   0.000000  celldm(5)=   0.000000  celldm(6)=   0.000000

     crystal axes: (cart. coord. in units of alat)
               a(1) = (   1.000000   0.000000   0.000000 )  
               a(2) = (   0.000000   1.000000   0.000000 )  
               a(3) = (   0.000000   0.000000   1.000000 )  

     reciprocal axes: (cart. coord. in units 2 pi/alat)
               b(1) = (  1.000000  0.000000  0.000000 )  
               b(2) = (  0.000000  1.000000  0.000000 )  
               b(3) = (  0.000000  0.000000  1.000000 )  


     PseudoPot. # 1 for Pd read from file:
     /rds/homes/b/bxp912/pp/Pd.pbe-spn-kjpaw_psl.1.0.0.UPF
     MD5 check sum: 790f2ebce206edfd9790dcb9844eca51
     Pseudo is Projector augmented-wave + core cor, Zval = 18.0
     Generated using "atomic" code by A. Dal Corso v.6.3
     Shape of augmentation charge: PSQ
     Using radial grid of 1235 points,  6 beta functions with: 
                l(1) =   0
                l(2) =   0
                l(3) =   1
                l(4) =   1
                l(5) =   2
                l(6) =   2
     Q(r) pseudized with 0 coefficients 


     atomic species   valence    mass     pseudopotential
        Pd            18.00   106.42000     Pd( 1.00)

     No symmetry found



   Cartesian axes

     site n.     atom                  positions (alat units)
         1           Pd  tau(   1) = (  -0.0000679   0.0000198   0.0001413  )
         2           Pd  tau(   2) = (   0.5001653   0.4996054   0.0001461  )
         3           Pd  tau(   3) = (   0.4998071   0.0000633   0.5006138  )
         4           Pd  tau(   4) = (  -0.0000415   0.5004543   0.5003815  )

     number of k points=    14  Marzari-Vanderbilt smearing, width (Ry)=  0.0200
                       cart. coord. in units 2pi/alat
        k(    1) = (   0.1666667   0.1666667   0.1666667), wk =   0.1481481
        k(    2) = (   0.1666667   0.1666667  -0.5000000), wk =   0.1481481
        k(    3) = (   0.1666667  -0.5000000  -0.5000000), wk =   0.1481481
        k(    4) = (  -0.5000000  -0.5000000  -0.5000000), wk =   0.0740741
        k(    5) = (  -0.1666667  -0.1666667   0.1666667), wk =   0.1481481
        k(    6) = (  -0.1666667   0.1666667  -0.1666667), wk =   0.1481481
        k(    7) = (   0.1666667  -0.1666667  -0.1666667), wk =   0.1481481
        k(    8) = (  -0.1666667   0.1666667   0.5000000), wk =   0.1481481
        k(    9) = (  -0.5000000  -0.1666667   0.1666667), wk =   0.1481481
        k(   10) = (   0.5000000  -0.1666667  -0.1666667), wk =   0.1481481
        k(   11) = (  -0.1666667  -0.5000000   0.1666667), wk =   0.1481481
        k(   12) = (  -0.1666667   0.5000000  -0.1666667), wk =   0.1481481
        k(   13) = (  -0.5000000   0.1666667   0.5000000), wk =   0.1481481
        k(   14) = (  -0.5000000   0.5000000   0.1666667), wk =   0.1481481

     Dense  grid:    40243 G-vectors     FFT dimensions: (  45,  45,  45)

     Estimated max dynamical RAM per process >      14.08 MB

     Estimated total dynamical RAM >     281.62 MB

     Check: negative/imaginary core charge=   -0.000004    0.000000

     Initial potential from superposition of free atoms

     starting charge   71.99847, renormalised to   72.00000
     Starting wfcs are   40 randomized atomic wfcs +    3 random wfcs
     Checking if some PAW data can be deallocated... 

     total cpu time spent up to now is        1.2 secs

     Self-consistent Calculation

     iteration #  1     ecut=   120.00 Ry     beta= 0.10
     Davidson diagonalization with overlap
     ethr =  1.00E-02,  avg # of iterations =  3.0

     Threshold (ethr) on eigenvalues was too large:
     Diagonalizing with lowered threshold

     Davidson diagonalization with overlap
     ethr =  4.67E-05,  avg # of iterations =  2.9

     total cpu time spent up to now is        2.8 secs

     total energy              =   -2048.12469261 Ry
     Harris-Foulkes estimate   =   -2048.12896295 Ry
     estimated scf accuracy    <       0.03210192 Ry

     iteration #  2     ecut=   120.00 Ry     beta= 0.10
     Davidson diagonalization with overlap
     ethr =  4.46E-05,  avg # of iterations =  1.0

     total cpu time spent up to now is        3.5 secs

     total energy              =   -2048.11841172 Ry
     Harris-Foulkes estimate   =   -2048.12515926 Ry
     estimated scf accuracy    <       0.01879342 Ry

     iteration #  3     ecut=   120.00 Ry     beta= 0.10
     Davidson diagonalization with overlap
     ethr =  2.61E-05,  avg # of iterations =  2.0

     total cpu time spent up to now is        4.3 secs

     total energy              =   -2048.12023816 Ry
     Harris-Foulkes estimate   =   -2048.12056081 Ry
     estimated scf accuracy    <       0.00275467 Ry

     iteration #  4     ecut=   120.00 Ry     beta= 0.10
     Davidson diagonalization with overlap
     ethr =  3.83E-06,  avg # of iterations =  1.1

     total cpu time spent up to now is        4.9 secs

     total energy              =   -2048.11964685 Ry
     Harris-Foulkes estimate   =   -2048.12030005 Ry
     estimated scf accuracy    <       0.00180646 Ry

     iteration #  5     ecut=   120.00 Ry     beta= 0.10
     Davidson diagonalization with overlap
     ethr =  2.51E-06,  avg # of iterations =  2.0

     total cpu time spent up to now is        5.6 secs

     total energy              =   -2048.11977720 Ry
     Harris-Foulkes estimate   =   -2048.11978345 Ry
     estimated scf accuracy    <       0.00002310 Ry

     iteration #  6     ecut=   120.00 Ry     beta= 0.10
     Davidson diagonalization with overlap
     ethr =  3.21E-08,  avg # of iterations =  3.3

     total cpu time spent up to now is        6.6 secs

     total energy              =   -2048.11978332 Ry
     Harris-Foulkes estimate   =   -2048.11978463 Ry
     estimated scf accuracy    <       0.00001229 Ry

     iteration #  7     ecut=   120.00 Ry     beta= 0.10
     Davidson diagonalization with overlap
     ethr =  1.71E-08,  avg # of iterations =  1.0

     total cpu time spent up to now is        7.3 secs

     total energy              =   -2048.11977953 Ry
     Harris-Foulkes estimate   =   -2048.11978338 Ry
     estimated scf accuracy    <       0.00001015 Ry

     iteration #  8     ecut=   120.00 Ry     beta= 0.10
     Davidson diagonalization with overlap
     ethr =  1.41E-08,  avg # of iterations =  2.4

     total cpu time spent up to now is        8.1 secs

     End of self-consistent calculation

          k = 0.1667 0.1667 0.1667 (  8802 PWs)   bands (ev):

   -64.3227 -64.2684 -64.2681 -64.2679 -30.1693 -30.1692 -30.1692 -30.0010
   -30.0004 -29.9996 -29.9522 -29.9520 -29.9519 -29.9259 -29.8364 -29.8364
    13.7057  14.9666  14.9675  14.9686  15.3425  15.3445  15.3466  16.8028
    17.2896  17.2896  18.4383  18.4395  18.4405  18.5786  18.5787  19.0268
    19.0270  19.0271  19.9908  19.9912  19.9916  23.7562  23.7571  23.7580
    30.7292  30.7312  30.7332

          k = 0.1667 0.1667-0.5000 (  8798 PWs)   bands (ev):

   -64.2956 -64.2952 -64.2683 -64.2679 -30.1429 -30.1429 -30.0736 -30.0731
   -30.0412 -30.0410 -29.9402 -29.9401 -29.8953 -29.8952 -29.8945 -29.8939
    15.1641  15.1645  15.8984  15.8984  15.9899  15.9899  16.2407  16.2459
    16.9164  16.9165  17.2161  17.2230  17.8767  17.8791  18.3647  18.3648
    19.4551  19.4559  19.4880  19.4926  19.7613  19.7613  26.3704  26.3704
    27.5745  27.5746  33.6117

          k = 0.1667-0.5000-0.5000 (  8844 PWs)   bands (ev):

   -64.2821 -64.2818 -64.2816 -64.2814 -30.1594 -30.1593 -30.1592 -30.1591
   -29.9552 -29.9550 -29.9542 -29.9540 -29.8812 -29.8811 -29.8806 -29.8805
    15.3405  15.3409  15.3422  15.3425  16.7068  16.7079  16.7110  16.7122
    17.5602  17.5610  17.5635  17.5650  17.5671  17.5688  17.5700  17.5705
    19.0752  19.0765  19.0811  19.0825  22.0924  22.0939  22.0977  22.0990
    29.9111  29.9116  29.9118

          k =-0.5000-0.5000-0.5000 (  8744 PWs)   bands (ev):

   -64.2820 -64.2816 -64.2816 -64.2813 -30.2331 -30.2331 -30.2331 -30.2330
   -29.8809 -29.8809 -29.8808 -29.8808 -29.8806 -29.8805 -29.8805 -29.8804
    14.5883  14.5883  14.5885  14.5886  16.9859  16.9859  16.9859  16.9860
    16.9860  16.9860  16.9861  16.9861  19.8454  19.8454  19.8454  19.8455
    19.8455  19.8456  19.8456  19.8456  20.9443  20.9445  20.9449  20.9451
    27.2333  27.2334  27.2338

          k =-0.1667-0.1667 0.1667 (  8802 PWs)   bands (ev):

   -64.3227 -64.2684 -64.2681 -64.2679 -30.1693 -30.1692 -30.1692 -30.0009
   -30.0004 -29.9998 -29.9522 -29.9520 -29.9518 -29.9259 -29.8364 -29.8363
    13.7057  14.9668  14.9675  14.9684  15.3429  15.3445  15.3461  16.8028
    17.2896  17.2896  18.4386  18.4394  18.4403  18.5786  18.5787  19.0268
    19.0269  19.0270  19.9909  19.9912  19.9916  23.7564  23.7571  23.7578
    30.7296  30.7312  30.7328

          k =-0.1667 0.1667-0.1667 (  8802 PWs)   bands (ev):

   -64.3227 -64.2684 -64.2681 -64.2679 -30.1693 -30.1692 -30.1691 -30.0009
   -30.0003 -30.0000 -29.9521 -29.9520 -29.9519 -29.9259 -29.8364 -29.8363
    13.7057  14.9669  14.9677  14.9682  15.3433  15.3445  15.3457  16.8028
    17.2896  17.2897  18.4388  18.4394  18.4401  18.5786  18.5787  19.0268
    19.0269  19.0270  19.9910  19.9913  19.9915  23.7566  23.7571  23.7576
    30.7300  30.7312  30.7323

          k = 0.1667-0.1667-0.1667 (  8802 PWs)   bands (ev):

   -64.3227 -64.2684 -64.2681 -64.2679 -30.1693 -30.1692 -30.1692 -30.0009
   -30.0004 -29.9999 -29.9522 -29.9520 -29.9518 -29.9259 -29.8364 -29.8363
    13.7057  14.9669  14.9676  14.9683  15.3431  15.3445  15.3459  16.8028
    17.2896  17.2896  18.4387  18.4395  18.4402  18.5785  18.5786  19.0268
    19.0269  19.0270  19.9910  19.9913  19.9915  23.7565  23.7571  23.7577
    30.7298  30.7312  30.7326

          k =-0.1667 0.1667 0.5000 (  8798 PWs)   bands (ev):

   -64.2956 -64.2952 -64.2683 -64.2679 -30.1429 -30.1428 -30.0736 -30.0731
   -30.0412 -30.0411 -29.9402 -29.9401 -29.8953 -29.8952 -29.8946 -29.8939
    15.1641  15.1645  15.8984  15.8984  15.9899  15.9899  16.2407  16.2459
    16.9164  16.9165  17.2161  17.2230  17.8767  17.8791  18.3647  18.3647
    19.4551  19.4559  19.4879  19.4926  19.7613  19.7613  26.3704  26.3704
    27.5746  27.5746  33.6118

          k =-0.5000-0.1667 0.1667 (  8798 PWs)   bands (ev):

   -64.2956 -64.2952 -64.2683 -64.2679 -30.1429 -30.1428 -30.0735 -30.0732
   -30.0413 -30.0410 -29.9403 -29.9399 -29.8953 -29.8952 -29.8944 -29.8941
    15.1640  15.1645  15.8982  15.8986  15.9898  15.9900  16.2429  16.2437
    16.9163  16.9165  17.2191  17.2199  17.8777  17.8781  18.3646  18.3648
    19.4554  19.4556  19.4900  19.4906  19.7613  19.7613  26.3701  26.3707
    27.5743  27.5748  33.6117

          k = 0.5000-0.1667-0.1667 (  8798 PWs)   bands (ev):

   -64.2956 -64.2952 -64.2683 -64.2679 -30.1429 -30.1429 -30.0735 -30.0732
   -30.0412 -30.0409 -29.9403 -29.9400 -29.8953 -29.8952 -29.8944 -29.8941
    15.1640  15.1645  15.8982  15.8986  15.9898  15.9900  16.2429  16.2436
    16.9163  16.9165  17.2191  17.2199  17.8777  17.8780  18.3647  18.3648
    19.4554  19.4556  19.4900  19.4906  19.7613  19.7613  26.3701  26.3707
    27.5743  27.5748  33.6115

          k =-0.1667-0.5000 0.1667 (  8798 PWs)   bands (ev):

   -64.2954 -64.2954 -64.2681 -64.2681 -30.1429 -30.1429 -30.0734 -30.0733
   -30.0412 -30.0411 -29.9402 -29.9401 -29.8952 -29.8952 -29.8943 -29.8943
    15.1642  15.1644  15.8984  15.8984  15.9899  15.9899  16.2432  16.2434
    16.9164  16.9165  17.2194  17.2197  17.8778  17.8779  18.3647  18.3648
    19.4555  19.4555  19.4902  19.4904  19.7612  19.7613  26.3703  26.3705
    27.5745  27.5747  33.6116

          k =-0.1667 0.5000-0.1667 (  8798 PWs)   bands (ev):

   -64.2954 -64.2954 -64.2681 -64.2681 -30.1429 -30.1429 -30.0734 -30.0733
   -30.0412 -30.0411 -29.9402 -29.9401 -29.8953 -29.8952 -29.8943 -29.8943
    15.1642  15.1644  15.8983  15.8984  15.9899  15.9899  16.2432  16.2434
    16.9164  16.9165  17.2194  17.2197  17.8778  17.8779  18.3647  18.3648
    19.4555  19.4555  19.4902  19.4904  19.7613  19.7613  26.3703  26.3705
    27.5745  27.5747  33.6118

          k =-0.5000 0.1667 0.5000 (  8844 PWs)   bands (ev):

   -64.2821 -64.2817 -64.2816 -64.2813 -30.1594 -30.1593 -30.1592 -30.1592
   -29.9550 -29.9549 -29.9545 -29.9541 -29.8812 -29.8810 -29.8807 -29.8806
    15.3408  15.3410  15.3419  15.3424  16.7075  16.7087  16.7104  16.7113
    17.5613  17.5616  17.5634  17.5648  17.5676  17.5678  17.5693  17.5702
    19.0758  19.0773  19.0804  19.0817  22.0936  22.0947  22.0966  22.0981
    29.9112  29.9115  29.9117

          k =-0.5000 0.5000 0.1667 (  8844 PWs)   bands (ev):

   -64.2821 -64.2817 -64.2816 -64.2814 -30.1594 -30.1593 -30.1592 -30.1591
   -29.9552 -29.9549 -29.9544 -29.9541 -29.8812 -29.8810 -29.8807 -29.8805
    15.3406  15.3411  15.3419  15.3425  16.7067  16.7082  16.7107  16.7123
    17.5604  17.5611  17.5631  17.5652  17.5675  17.5687  17.5698  17.5701
    19.0754  19.0772  19.0804  19.0823  22.0921  22.0941  22.0974  22.0994
    29.9110  29.9115  29.9119

     the Fermi energy is    19.8347 ev

!    total energy              =   -2048.11978054 Ry
     Harris-Foulkes estimate   =   -2048.11978105 Ry
     estimated scf accuracy    <       0.00000059 Ry

     total all-electron energy =    -40368.226494 Ry

     The total energy is the sum of the following terms:

     one-electron contribution =    -298.75454386 Ry
     hartree contribution      =     203.10419103 Ry
     xc contribution           =    -123.33975884 Ry
     ewald contribution        =    -808.20155572 Ry
     one-center paw contrib.   =   -1020.92992961 Ry
     smearing contrib. (-TS)   =       0.00181645 Ry

     convergence has been achieved in   8 iterations

     Forces acting on atoms (cartesian axes, Ry/au):

     atom    1 type  1   force =     0.00011822    0.00003866    0.00057289
     atom    2 type  1   force =    -0.00034320    0.00062815    0.00052143
     atom    3 type  1   force =     0.00018350   -0.00008923   -0.00068527
     atom    4 type  1   force =     0.00004148   -0.00057758   -0.00040905

     Total force =     0.001463     Total SCF correction =     0.000678
     SCF correction compared to forces is large: reduce conv_thr to get better values


     Computing stress (Cartesian axis) and pressure

          total   stress  (Ry/bohr**3)                   (kbar)     P=   62.19
   0.00042239   0.00000044   0.00000017         62.14      0.07      0.03
   0.00000044   0.00042326   0.00000042          0.07     62.26      0.06
   0.00000017   0.00000042   0.00042256          0.03      0.06     62.16


     Writing output data file pd_fcc_1.save/
 
     init_run     :      0.39s CPU      0.45s WALL (       1 calls)
     electrons    :      6.72s CPU      6.98s WALL (       1 calls)
     forces       :      0.06s CPU      0.06s WALL (       1 calls)
     stress       :      0.13s CPU      0.13s WALL (       1 calls)

     Called by init_run:
     wfcinit      :      0.26s CPU      0.27s WALL (       1 calls)
     potinit      :      0.05s CPU      0.06s WALL (       1 calls)
     hinit0       :      0.06s CPU      0.07s WALL (       1 calls)

     Called by electrons:
     c_bands      :      5.37s CPU      5.51s WALL (       9 calls)
     sum_band     :      0.86s CPU      0.92s WALL (       9 calls)
     v_of_rho     :      0.03s CPU      0.04s WALL (       9 calls)
     newd         :      0.05s CPU      0.07s WALL (       9 calls)
     PAW_pot      :      0.39s CPU      0.44s WALL (       9 calls)
     mix_rho      :      0.01s CPU      0.01s WALL (       9 calls)

     Called by c_bands:
     init_us_2    :      0.06s CPU      0.06s WALL (     294 calls)
     cegterg      :      5.08s CPU      5.21s WALL (     126 calls)

     Called by sum_band:
     sum_band:bec :      0.00s CPU      0.00s WALL (     126 calls)
     addusdens    :      0.05s CPU      0.07s WALL (       9 calls)

     Called by *egterg:
     h_psi        :      3.73s CPU      3.86s WALL (     403 calls)
     s_psi        :      0.07s CPU      0.07s WALL (     403 calls)
     g_psi        :      0.01s CPU      0.01s WALL (     263 calls)
     cdiaghg      :      0.99s CPU      1.00s WALL (     375 calls)

     Called by h_psi:
     h_psi:pot    :      3.71s CPU      3.84s WALL (     403 calls)
     h_psi:calbec :      0.15s CPU      0.15s WALL (     403 calls)
     vloc_psi     :      3.47s CPU      3.60s WALL (     403 calls)
     add_vuspsi   :      0.09s CPU      0.09s WALL (     403 calls)

     General routines
     calbec       :      0.23s CPU      0.23s WALL (     599 calls)
     fft          :      0.04s CPU      0.04s WALL (     126 calls)
     ffts         :      0.00s CPU      0.00s WALL (       9 calls)
     fftw         :      3.97s CPU      4.11s WALL (   31468 calls)
 
     Parallel routines
     fft_scatt_xy :      0.28s CPU      0.29s WALL (   31603 calls)
     fft_scatt_yz :      2.27s CPU      2.35s WALL (   31603 calls)
 
     PWSCF        :     8.10s CPU         8.56s WALL

 
   This run was terminated on:   7:21:48  27May2020            

=------------------------------------------------------------------------------=
   JOB DONE.
=------------------------------------------------------------------------------=
