
     Program PWSCF v.6.4.1 starts on 11Mar2020 at  6:20:53 

     This program is part of the open-source Quantum ESPRESSO suite
     for quantum simulation of materials; please cite
         "P. Giannozzi et al., J. Phys.:Condens. Matter 21 395502 (2009);
         "P. Giannozzi et al., J. Phys.:Condens. Matter 29 465901 (2017);
          URL http://www.quantum-espresso.org", 
     in publications or presentations arising from this work. More details at
     http://www.quantum-espresso.org/quote

     Parallel version (MPI), running on     4 processors

     MPI processes distributed on     1 nodes
     R & G space division:  proc/nbgrp/npool/nimage =       4
     Reading input from wd/ecut/file_000041.in
Warning: card &IONS ignored
Warning: card ION_DYNAMICS = 'BFGS', ignored
Warning: card / ignored
Warning: card &CELL ignored
Warning: card CELL_DYNAMICS = 'BFGS', ignored
Warning: card CELL_FACTOR = 2.0, ignored
Warning: card PRESS = 0.0, ignored
Warning: card / ignored

     Current dimensions of program PWSCF are:
     Max number of different atomic species (ntypx) = 10
     Max number of k-points (npk) =  40000
     Max angular momentum in pseudopotentials (lmaxx) =  3
               file Al.pbe-nl-kjpaw_psl.1.0.0.UPF: wavefunction(s)  3S 3P renormalized

     Subspace diagonalization in iterative solution of the eigenvalue problem:
     a serial algorithm will be used


     Parallelization info
     --------------------
     sticks:   dense  smooth     PW     G-vecs:    dense   smooth      PW
     Min         122     122     55                 2054     2054     617
     Max         123     123     56                 2055     2055     618
     Sum         489     489    221                 8217     8217    2469



     bravais-lattice index     =            0
     lattice parameter (alat)  =       7.6356  a.u.
     unit-cell volume          =     445.1737 (a.u.)^3
     number of atoms/cell      =            4
     number of atomic types    =            1
     number of electrons       =        12.00
     number of Kohn-Sham states=           10
     kinetic-energy cutoff     =      38.0000  Ry
     charge density cutoff     =     105.0000  Ry
     convergence threshold     =      1.0E-06
     mixing beta               =       0.1000
     number of iterations used =           10  TF        mixing
     Exchange-correlation      = SLA PW PBX PBC ( 1  4  3  4 0 0)

     celldm(1)=   7.635600  celldm(2)=   0.000000  celldm(3)=   0.000000
     celldm(4)=   0.000000  celldm(5)=   0.000000  celldm(6)=   0.000000

     crystal axes: (cart. coord. in units of alat)
               a(1) = (   1.000000   0.000000   0.000000 )  
               a(2) = (   0.000000   1.000000   0.000000 )  
               a(3) = (   0.000000   0.000000   1.000000 )  

     reciprocal axes: (cart. coord. in units 2 pi/alat)
               b(1) = (  1.000000  0.000000  0.000000 )  
               b(2) = (  0.000000  1.000000  0.000000 )  
               b(3) = (  0.000000  0.000000  1.000000 )  


     PseudoPot. # 1 for Al read from file:
     /opt/pp/Al.pbe-nl-kjpaw_psl.1.0.0.UPF
     MD5 check sum: 1b67f78b73fe58c7924490f171ce8a1e
     Pseudo is Projector augmented-wave + core cor, Zval =  3.0
     Generated using "atomic" code by A. Dal Corso v.6.3
     Shape of augmentation charge: PSQ
     Using radial grid of 1135 points,  4 beta functions with: 
                l(1) =   0
                l(2) =   0
                l(3) =   1
                l(4) =   1
     Q(r) pseudized with 0 coefficients 


     atomic species   valence    mass     pseudopotential
        Al             3.00    26.98200     Al( 1.00)

     No symmetry found



   Cartesian axes

     site n.     atom                  positions (alat units)
         1           Al  tau(   1) = (  -0.0000654   0.0000190   0.0001361  )
         2           Al  tau(   2) = (   0.5001592   0.4996200   0.0001406  )
         3           Al  tau(   3) = (   0.4998143   0.0000610   0.5005910  )
         4           Al  tau(   4) = (  -0.0000400   0.5004374   0.5003674  )

     number of k points=    63  Marzari-Vanderbilt smearing, width (Ry)=  0.0200
                       cart. coord. in units 2pi/alat
        k(    1) = (   0.1000000   0.1000000   0.1000000), wk =   0.0320000
        k(    2) = (   0.1000000   0.1000000   0.3000000), wk =   0.0320000
        k(    3) = (   0.1000000   0.1000000  -0.5000000), wk =   0.0320000
        k(    4) = (   0.1000000   0.3000000   0.3000000), wk =   0.0320000
        k(    5) = (   0.1000000   0.3000000  -0.5000000), wk =   0.0320000
        k(    6) = (   0.1000000  -0.5000000  -0.5000000), wk =   0.0320000
        k(    7) = (   0.3000000   0.3000000   0.3000000), wk =   0.0320000
        k(    8) = (   0.3000000   0.3000000  -0.5000000), wk =   0.0320000
        k(    9) = (   0.3000000  -0.5000000  -0.5000000), wk =   0.0320000
        k(   10) = (  -0.5000000  -0.5000000  -0.5000000), wk =   0.0160000
        k(   11) = (  -0.1000000  -0.1000000   0.1000000), wk =   0.0320000
        k(   12) = (  -0.1000000   0.1000000  -0.1000000), wk =   0.0320000
        k(   13) = (   0.1000000  -0.1000000  -0.1000000), wk =   0.0320000
        k(   14) = (  -0.1000000  -0.1000000   0.3000000), wk =   0.0320000
        k(   15) = (  -0.1000000   0.1000000  -0.3000000), wk =   0.0320000
        k(   16) = (   0.1000000  -0.1000000  -0.3000000), wk =   0.0320000
        k(   17) = (   0.3000000  -0.1000000   0.1000000), wk =   0.0320000
        k(   18) = (  -0.3000000  -0.1000000  -0.1000000), wk =   0.0320000
        k(   19) = (   0.3000000   0.1000000  -0.1000000), wk =   0.0320000
        k(   20) = (  -0.3000000   0.1000000   0.1000000), wk =   0.0320000
        k(   21) = (  -0.1000000   0.3000000   0.1000000), wk =   0.0320000
        k(   22) = (  -0.1000000  -0.3000000  -0.1000000), wk =   0.0320000
        k(   23) = (   0.1000000   0.3000000  -0.1000000), wk =   0.0320000
        k(   24) = (   0.1000000  -0.3000000   0.1000000), wk =   0.0320000
        k(   25) = (  -0.1000000   0.1000000   0.5000000), wk =   0.0320000
        k(   26) = (  -0.5000000  -0.1000000   0.1000000), wk =   0.0320000
        k(   27) = (   0.5000000  -0.1000000  -0.1000000), wk =   0.0320000
        k(   28) = (  -0.1000000  -0.5000000   0.1000000), wk =   0.0320000
        k(   29) = (  -0.1000000   0.5000000  -0.1000000), wk =   0.0320000
        k(   30) = (  -0.1000000  -0.3000000   0.3000000), wk =   0.0320000
        k(   31) = (  -0.1000000   0.3000000  -0.3000000), wk =   0.0320000
        k(   32) = (   0.1000000  -0.3000000  -0.3000000), wk =   0.0320000
        k(   33) = (   0.3000000   0.1000000  -0.3000000), wk =   0.0320000
        k(   34) = (  -0.3000000  -0.1000000  -0.3000000), wk =   0.0320000
        k(   35) = (   0.3000000  -0.1000000   0.3000000), wk =   0.0320000
        k(   36) = (  -0.3000000   0.1000000   0.3000000), wk =   0.0320000
        k(   37) = (   0.3000000  -0.3000000   0.1000000), wk =   0.0320000
        k(   38) = (  -0.3000000  -0.3000000  -0.1000000), wk =   0.0320000
        k(   39) = (   0.3000000   0.3000000  -0.1000000), wk =   0.0320000
        k(   40) = (  -0.3000000   0.3000000   0.1000000), wk =   0.0320000
        k(   41) = (  -0.1000000   0.3000000   0.5000000), wk =   0.0320000
        k(   42) = (   0.3000000   0.1000000   0.5000000), wk =   0.0320000
        k(   43) = (   0.3000000  -0.1000000  -0.5000000), wk =   0.0320000
        k(   44) = (  -0.5000000  -0.3000000   0.1000000), wk =   0.0320000
        k(   45) = (   0.5000000  -0.3000000  -0.1000000), wk =   0.0320000
        k(   46) = (  -0.1000000  -0.5000000   0.3000000), wk =   0.0320000
        k(   47) = (  -0.1000000   0.5000000  -0.3000000), wk =   0.0320000
        k(   48) = (   0.3000000  -0.5000000   0.1000000), wk =   0.0320000
        k(   49) = (   0.3000000   0.5000000  -0.1000000), wk =   0.0320000
        k(   50) = (  -0.5000000   0.1000000   0.3000000), wk =   0.0320000
        k(   51) = (   0.5000000  -0.1000000   0.3000000), wk =   0.0320000
        k(   52) = (  -0.5000000   0.1000000   0.5000000), wk =   0.0320000
        k(   53) = (  -0.5000000   0.5000000   0.1000000), wk =   0.0320000
        k(   54) = (  -0.3000000  -0.3000000   0.3000000), wk =   0.0320000
        k(   55) = (  -0.3000000   0.3000000  -0.3000000), wk =   0.0320000
        k(   56) = (   0.3000000  -0.3000000  -0.3000000), wk =   0.0320000
        k(   57) = (  -0.3000000   0.3000000   0.5000000), wk =   0.0320000
        k(   58) = (  -0.5000000  -0.3000000   0.3000000), wk =   0.0320000
        k(   59) = (   0.5000000  -0.3000000  -0.3000000), wk =   0.0320000
        k(   60) = (  -0.3000000  -0.5000000   0.3000000), wk =   0.0320000
        k(   61) = (  -0.3000000   0.5000000  -0.3000000), wk =   0.0320000
        k(   62) = (  -0.5000000   0.3000000   0.5000000), wk =   0.0320000
        k(   63) = (  -0.5000000   0.5000000   0.3000000), wk =   0.0320000

     Dense  grid:     8217 G-vectors     FFT dimensions: (  25,  25,  25)

     Estimated max dynamical RAM per process >       7.76 MB

     Estimated total dynamical RAM >      31.03 MB

     Initial potential from superposition of free atoms

     starting charge   11.99084, renormalised to   12.00000
     Starting wfcs are   16 randomized atomic wfcs
     Checking if some PAW data can be deallocated... 

     total cpu time spent up to now is        0.8 secs

     Self-consistent Calculation

     iteration #  1     ecut=    38.00 Ry     beta= 0.10
     Davidson diagonalization with overlap
     ethr =  1.00E-02,  avg # of iterations =  3.1

     Threshold (ethr) on eigenvalues was too large:
     Diagonalizing with lowered threshold

     Davidson diagonalization with overlap
     ethr =  1.95E-04,  avg # of iterations =  3.5

     total cpu time spent up to now is        2.3 secs

     total energy              =    -158.00540170 Ry
     Harris-Foulkes estimate   =    -158.00621542 Ry
     estimated scf accuracy    <       0.02273393 Ry

     iteration #  2     ecut=    38.00 Ry     beta= 0.10
     Davidson diagonalization with overlap
     ethr =  1.89E-04,  avg # of iterations =  1.0

     total cpu time spent up to now is        2.8 secs

     total energy              =    -157.99942612 Ry
     Harris-Foulkes estimate   =    -158.00551710 Ry
     estimated scf accuracy    <       0.01959755 Ry

     iteration #  3     ecut=    38.00 Ry     beta= 0.10
     Davidson diagonalization with overlap
     ethr =  1.63E-04,  avg # of iterations =  1.0

     total cpu time spent up to now is        3.2 secs

     total energy              =    -157.99975417 Ry
     Harris-Foulkes estimate   =    -157.99979761 Ry
     estimated scf accuracy    <       0.00009075 Ry

     iteration #  4     ecut=    38.00 Ry     beta= 0.10
     Davidson diagonalization with overlap
     ethr =  7.56E-07,  avg # of iterations =  5.1

     total cpu time spent up to now is        4.2 secs

     total energy              =    -157.99981552 Ry
     Harris-Foulkes estimate   =    -157.99982912 Ry
     estimated scf accuracy    <       0.00005462 Ry

     iteration #  5     ecut=    38.00 Ry     beta= 0.10
     Davidson diagonalization with overlap
     ethr =  4.55E-07,  avg # of iterations =  1.0

     total cpu time spent up to now is        4.7 secs

     total energy              =    -157.99977215 Ry
     Harris-Foulkes estimate   =    -157.99981678 Ry
     estimated scf accuracy    <       0.00004093 Ry

     iteration #  6     ecut=    38.00 Ry     beta= 0.10
     Davidson diagonalization with overlap
     ethr =  3.41E-07,  avg # of iterations =  2.0

     total cpu time spent up to now is        5.3 secs

     End of self-consistent calculation

          k = 0.1000 0.1000 0.1000 (  1791 PWs)   bands (ev):

    -2.9615   4.0414   4.0437   4.0460   7.7412   7.7438   7.7464  10.7602
    10.7631  10.7660

          k = 0.1000 0.1000 0.3000 (  1769 PWs)   bands (ev):

    -2.2391   1.3156   4.7246   4.7279   8.0298   8.0359   8.5367   8.5373
    11.3563  11.7963

          k = 0.1000 0.1000-0.5000 (  1752 PWs)   bands (ev):

    -0.8088  -0.8018   5.9695   5.9702   6.2106   6.2115   9.5130   9.5135
    10.1740  10.1751

          k = 0.1000 0.3000 0.3000 (  1759 PWs)   bands (ev):

    -1.5203   2.0150   2.0182   5.3103   5.5761   8.7945   8.7988   9.1501
    12.1850  12.1920

          k = 0.1000 0.3000-0.5000 (  1750 PWs)   bands (ev):

    -0.0971  -0.0901   3.4039   3.4109   6.7765   6.7840  10.1397  10.1477
    10.4848  10.4914

          k = 0.1000-0.5000-0.5000 (  1744 PWs)   bands (ev):

     1.3153   1.3157   1.3223   1.3235   8.1279   8.1285   8.1359   8.1372
    11.8273  11.8328

          k = 0.3000 0.3000 0.3000 (  1752 PWs)   bands (ev):

    -0.8051   2.7113   2.7138   2.7163   6.1651   6.1678   6.1704   9.5502
    13.0699  13.0739

          k = 0.3000 0.3000-0.5000 (  1762 PWs)   bands (ev):

     0.6113   0.6182   3.9824   3.9831   4.2313   4.2323   7.5261   7.5336
    14.1699  14.5699

          k = 0.3000-0.5000-0.5000 (  1756 PWs)   bands (ev):

     2.0165   2.0170   2.0236   2.0247   5.4858   5.4862   5.4931   5.4943
    15.6209  15.6248

          k =-0.5000-0.5000-0.5000 (  1736 PWs)   bands (ev):

     3.3109   3.3111   3.3113   3.3119   3.5276   3.5287   3.5289   3.5293
    19.3113  19.3117

          k =-0.1000-0.1000 0.1000 (  1791 PWs)   bands (ev):

    -2.9615   4.0418   4.0437   4.0455   7.7417   7.7439   7.7459  10.7607
    10.7631  10.7654

          k =-0.1000 0.1000-0.1000 (  1791 PWs)   bands (ev):

    -2.9615   4.0424   4.0436   4.0450   7.7423   7.7438   7.7453  10.7614
    10.7631  10.7648

          k = 0.1000-0.1000-0.1000 (  1791 PWs)   bands (ev):

    -2.9615   4.0420   4.0437   4.0453   7.7419   7.7439   7.7457  10.7610
    10.7631  10.7652

          k =-0.1000-0.1000 0.3000 (  1769 PWs)   bands (ev):

    -2.2391   1.3156   4.7246   4.7279   8.0298   8.0359   8.5367   8.5373
    11.3563  11.7964

          k =-0.1000 0.1000-0.3000 (  1769 PWs)   bands (ev):

    -2.2391   1.3156   4.7255   4.7270   8.0314   8.0342   8.5369   8.5372
    11.3563  11.7961

          k = 0.1000-0.1000-0.3000 (  1769 PWs)   bands (ev):

    -2.2391   1.3156   4.7255   4.7270   8.0314   8.0342   8.5369   8.5372
    11.3563  11.7963

          k = 0.3000-0.1000 0.1000 (  1769 PWs)   bands (ev):

    -2.2391   1.3156   4.7254   4.7271   8.0314   8.0343   8.5368   8.5372
    11.3563  11.7961

          k =-0.3000-0.1000-0.1000 (  1769 PWs)   bands (ev):

    -2.2391   1.3156   4.7248   4.7277   8.0303   8.0354   8.5367   8.5373
    11.3563  11.7965

          k = 0.3000 0.1000-0.1000 (  1769 PWs)   bands (ev):

    -2.2391   1.3156   4.7254   4.7271   8.0314   8.0343   8.5368   8.5372
    11.3563  11.7965

          k =-0.3000 0.1000 0.1000 (  1769 PWs)   bands (ev):

    -2.2391   1.3156   4.7248   4.7277   8.0302   8.0354   8.5367   8.5373
    11.3562  11.7962

          k =-0.1000 0.3000 0.1000 (  1769 PWs)   bands (ev):

    -2.2391   1.3156   4.7260   4.7265   8.0324   8.0333   8.5369   8.5371
    11.3563  11.7958

          k =-0.1000-0.3000-0.1000 (  1769 PWs)   bands (ev):

    -2.2391   1.3156   4.7255   4.7270   8.0314   8.0343   8.5370   8.5371
    11.3563  11.7960

          k = 0.1000 0.3000-0.1000 (  1769 PWs)   bands (ev):

    -2.2391   1.3156   4.7260   4.7265   8.0324   8.0333   8.5369   8.5371
    11.3563  11.7957

          k = 0.1000-0.3000 0.1000 (  1769 PWs)   bands (ev):

    -2.2391   1.3156   4.7255   4.7270   8.0314   8.0343   8.5370   8.5370
    11.3563  11.7957

          k =-0.1000 0.1000 0.5000 (  1752 PWs)   bands (ev):

    -0.8088  -0.8018   5.9695   5.9701   6.2106   6.2116   9.5131   9.5135
    10.1740  10.1751

          k =-0.5000-0.1000 0.1000 (  1752 PWs)   bands (ev):

    -0.8058  -0.8048   5.9696   5.9701   6.2107   6.2114   9.5131   9.5134
    10.1741  10.1750

          k = 0.5000-0.1000-0.1000 (  1752 PWs)   bands (ev):

    -0.8058  -0.8048   5.9697   5.9701   6.2107   6.2114   9.5131   9.5134
    10.1741  10.1750

          k =-0.1000-0.5000 0.1000 (  1752 PWs)   bands (ev):

    -0.8055  -0.8051   5.9698   5.9700   6.2108   6.2112   9.5132   9.5133
    10.1744  10.1748

          k =-0.1000 0.5000-0.1000 (  1752 PWs)   bands (ev):

    -0.8055  -0.8051   5.9697   5.9700   6.2109   6.2112   9.5132   9.5134
    10.1744  10.1747

          k =-0.1000-0.3000 0.3000 (  1759 PWs)   bands (ev):

    -1.5203   2.0157   2.0175   5.3103   5.5761   8.7954   8.7978   9.1501
    12.1866  12.1905

          k =-0.1000 0.3000-0.3000 (  1759 PWs)   bands (ev):

    -1.5203   2.0157   2.0175   5.3103   5.5761   8.7954   8.7978   9.1501
    12.1871  12.1906

          k = 0.1000-0.3000-0.3000 (  1759 PWs)   bands (ev):

    -1.5203   2.0150   2.0182   5.3103   5.5761   8.7945   8.7988   9.1501
    12.1850  12.1915

          k = 0.3000 0.1000-0.3000 (  1759 PWs)   bands (ev):

    -1.5203   2.0163   2.0169   5.3103   5.5761   8.7963   8.7970   9.1501
    12.1870  12.1893

          k =-0.3000-0.1000-0.3000 (  1759 PWs)   bands (ev):

    -1.5203   2.0158   2.0174   5.3103   5.5761   8.7955   8.7978   9.1501
    12.1869  12.1907

          k = 0.3000-0.1000 0.3000 (  1759 PWs)   bands (ev):

    -1.5203   2.0158   2.0174   5.3103   5.5761   8.7955   8.7978   9.1501
    12.1846  12.1906

          k =-0.3000 0.1000 0.3000 (  1759 PWs)   bands (ev):

    -1.5203   2.0163   2.0169   5.3103   5.5761   8.7962   8.7970   9.1501
    12.1874  12.1893

          k = 0.3000-0.3000 0.1000 (  1759 PWs)   bands (ev):

    -1.5203   2.0158   2.0174   5.3103   5.5761   8.7955   8.7978   9.1501
    12.1868  12.1905

          k =-0.3000-0.3000-0.1000 (  1759 PWs)   bands (ev):

    -1.5203   2.0148   2.0184   5.3103   5.5761   8.7942   8.7991   9.1501
    12.1851  12.1925

          k = 0.3000 0.3000-0.1000 (  1759 PWs)   bands (ev):

    -1.5203   2.0148   2.0184   5.3103   5.5761   8.7941   8.7991   9.1501
    12.1846  12.1926

          k =-0.3000 0.3000 0.1000 (  1759 PWs)   bands (ev):

    -1.5203   2.0158   2.0174   5.3103   5.5761   8.7955   8.7978   9.1501
    12.1867  12.1907

          k =-0.1000 0.3000 0.5000 (  1750 PWs)   bands (ev):

    -0.0971  -0.0901   3.4039   3.4109   6.7765   6.7840  10.1397  10.1477
    10.4848  10.4914

          k = 0.3000 0.1000 0.5000 (  1750 PWs)   bands (ev):

    -0.0971  -0.0901   3.4038   3.4109   6.7765   6.7840  10.1397  10.1477
    10.4849  10.4914

          k = 0.3000-0.1000-0.5000 (  1750 PWs)   bands (ev):

    -0.0971  -0.0901   3.4038   3.4109   6.7765   6.7840  10.1397  10.1477
    10.4849  10.4914

          k =-0.5000-0.3000 0.1000 (  1750 PWs)   bands (ev):

    -0.0941  -0.0931   3.4069   3.4079   6.7797   6.7807  10.1432  10.1442
    10.4877  10.4885

          k = 0.5000-0.3000-0.1000 (  1750 PWs)   bands (ev):

    -0.0941  -0.0931   3.4069   3.4079   6.7797   6.7807  10.1432  10.1442
    10.4877  10.4886

          k =-0.1000-0.5000 0.3000 (  1750 PWs)   bands (ev):

    -0.0938  -0.0934   3.4072   3.4076   6.7800   6.7805  10.1435  10.1440
    10.4879  10.4883

          k =-0.1000 0.5000-0.3000 (  1750 PWs)   bands (ev):

    -0.0938  -0.0934   3.4071   3.4076   6.7800   6.7805  10.1435  10.1440
    10.4879  10.4883

          k = 0.3000-0.5000 0.1000 (  1750 PWs)   bands (ev):

    -0.0938  -0.0934   3.4071   3.4076   6.7800   6.7805  10.1435  10.1439
    10.4879  10.4883

          k = 0.3000 0.5000-0.1000 (  1750 PWs)   bands (ev):

    -0.0938  -0.0934   3.4071   3.4076   6.7800   6.7805  10.1434  10.1440
    10.4879  10.4884

          k =-0.5000 0.1000 0.3000 (  1750 PWs)   bands (ev):

    -0.0941  -0.0931   3.4069   3.4079   6.7797   6.7807  10.1432  10.1442
    10.4877  10.4886

          k = 0.5000-0.1000 0.3000 (  1750 PWs)   bands (ev):

    -0.0941  -0.0931   3.4069   3.4079   6.7797   6.7807  10.1432  10.1442
    10.4877  10.4885

          k =-0.5000 0.1000 0.5000 (  1744 PWs)   bands (ev):

     1.3153   1.3160   1.3220   1.3234   8.1281   8.1288   8.1355   8.1371
    11.8266  11.8317

          k =-0.5000 0.5000 0.1000 (  1744 PWs)   bands (ev):

     1.3173   1.3184   1.3199   1.3212   8.1299   8.1313   8.1334   8.1350
    11.8290  11.8305

          k =-0.3000-0.3000 0.3000 (  1752 PWs)   bands (ev):

    -0.8051   2.7118   2.7138   2.7157   6.1656   6.1678   6.1699   9.5502
    13.0710  13.0729

          k =-0.3000 0.3000-0.3000 (  1752 PWs)   bands (ev):

    -0.8051   2.7124   2.7137   2.7152   6.1662   6.1678   6.1693   9.5502
    13.0708  13.0719

          k = 0.3000-0.3000-0.3000 (  1752 PWs)   bands (ev):

    -0.8051   2.7120   2.7138   2.7155   6.1659   6.1678   6.1697   9.5502
    13.0704  13.0719

          k =-0.3000 0.3000 0.5000 (  1762 PWs)   bands (ev):

     0.6113   0.6182   3.9825   3.9830   4.2313   4.2323   7.5261   7.5336
    14.5684  14.5699

          k =-0.5000-0.3000 0.3000 (  1762 PWs)   bands (ev):

     0.6143   0.6152   3.9826   3.9830   4.2314   4.2321   7.5294   7.5304
    14.1699  14.5699

          k = 0.5000-0.3000-0.3000 (  1762 PWs)   bands (ev):

     0.6143   0.6152   3.9826   3.9830   4.2314   4.2321   7.5293   7.5304
    14.1701  14.5696

          k =-0.3000-0.5000 0.3000 (  1762 PWs)   bands (ev):

     0.6145   0.6150   3.9827   3.9829   4.2315   4.2319   7.5296   7.5301
    14.5692  14.5696

          k =-0.3000 0.5000-0.3000 (  1762 PWs)   bands (ev):

     0.6145   0.6150   3.9827   3.9829   4.2316   4.2319   7.5296   7.5301
    14.1697  14.1700

          k =-0.5000 0.3000 0.5000 (  1756 PWs)   bands (ev):

     2.0166   2.0173   2.0233   2.0246   5.4858   5.4865   5.4928   5.4942
    15.6230  15.6268

          k =-0.5000 0.5000 0.3000 (  1756 PWs)   bands (ev):

     2.0185   2.0196   2.0212   2.0224   5.4878   5.4890   5.4906   5.4920
    15.6233  15.6243

     the Fermi energy is     8.0541 ev

!    total energy              =    -157.99978200 Ry
     Harris-Foulkes estimate   =    -157.99978219 Ry
     estimated scf accuracy    <       0.00000095 Ry

     total all-electron energy =     -1942.570904 Ry

     The total energy is the sum of the following terms:

     one-electron contribution =      12.66566676 Ry
     hartree contribution      =       0.02378913 Ry
     xc contribution           =     -10.36286534 Ry
     ewald contribution        =     -21.61650270 Ry
     one-center paw contrib.   =    -138.70805454 Ry
     smearing contrib. (-TS)   =      -0.00181531 Ry

     convergence has been achieved in   6 iterations

     Forces acting on atoms (cartesian axes, Ry/au):

     atom    1 type  1   force =     0.00005652   -0.00004678    0.00020358
     atom    2 type  1   force =    -0.00015221    0.00016287    0.00020599
     atom    3 type  1   force =     0.00003711    0.00005459   -0.00030050
     atom    4 type  1   force =     0.00005858   -0.00017068   -0.00010907

     Total force =     0.000527     Total SCF correction =     0.000224
     SCF correction compared to forces is large: reduce conv_thr to get better values


     Computing stress (Cartesian axis) and pressure

          total   stress  (Ry/bohr**3)                   (kbar)     P=   -0.93
  -0.00000632   0.00000001   0.00000001         -0.93      0.00      0.00
   0.00000001  -0.00000631   0.00000000          0.00     -0.93      0.00
   0.00000001   0.00000000  -0.00000632          0.00      0.00     -0.93


     Writing output data file fe_scf_fcc_2.save/

     init_run     :      0.40s CPU      0.43s WALL (       1 calls)
     electrons    :      4.20s CPU      4.49s WALL (       1 calls)
     forces       :      0.11s CPU      0.11s WALL (       1 calls)
     stress       :      0.20s CPU      0.20s WALL (       1 calls)

     Called by init_run:
     wfcinit      :      0.30s CPU      0.33s WALL (       1 calls)
     potinit      :      0.04s CPU      0.05s WALL (       1 calls)
     hinit0       :      0.05s CPU      0.05s WALL (       1 calls)

     Called by electrons:
     c_bands      :      3.49s CPU      3.70s WALL (       7 calls)
     sum_band     :      0.45s CPU      0.51s WALL (       7 calls)
     v_of_rho     :      0.02s CPU      0.02s WALL (       7 calls)
     newd         :      0.01s CPU      0.01s WALL (       7 calls)
     PAW_pot      :      0.27s CPU      0.29s WALL (       7 calls)
     mix_rho      :      0.00s CPU      0.00s WALL (       7 calls)

     Called by c_bands:
     init_us_2    :      0.09s CPU      0.10s WALL (    1071 calls)
     cegterg      :      3.33s CPU      3.53s WALL (     441 calls)

     Called by sum_band:
     sum_band:bec :      0.00s CPU      0.00s WALL (     441 calls)
     addusdens    :      0.01s CPU      0.01s WALL (       7 calls)

     Called by *egterg:
     h_psi        :      2.31s CPU      2.46s WALL (    1555 calls)
     s_psi        :      0.22s CPU      0.23s WALL (    1555 calls)
     g_psi        :      0.01s CPU      0.01s WALL (    1051 calls)
     cdiaghg      :      0.24s CPU      0.25s WALL (    1429 calls)

     Called by h_psi:
     h_psi:pot    :      2.30s CPU      2.45s WALL (    1555 calls)
     h_psi:calbec :      0.37s CPU      0.39s WALL (    1555 calls)
     vloc_psi     :      1.71s CPU      1.82s WALL (    1555 calls)
     add_vuspsi   :      0.22s CPU      0.23s WALL (    1555 calls)

     General routines
     calbec       :      0.60s CPU      0.65s WALL (    2311 calls)
     fft          :      0.01s CPU      0.01s WALL (     103 calls)
     ffts         :      0.00s CPU      0.00s WALL (       7 calls)
     fftw         :      1.85s CPU      1.99s WALL (   29390 calls)

     Parallel routines
     fft_scatt_xy :      0.18s CPU      0.20s WALL (   29500 calls)
     fft_scatt_yz :      1.02s CPU      1.10s WALL (   29500 calls)

     PWSCF        :      5.33s CPU      5.69s WALL


   This run was terminated on:   6:20:59  11Mar2020            

=------------------------------------------------------------------------------=
   JOB DONE.
=------------------------------------------------------------------------------=
