
     Program PWSCF v.6.4.1 starts on 11Mar2020 at  6:21: 5 

     This program is part of the open-source Quantum ESPRESSO suite
     for quantum simulation of materials; please cite
         "P. Giannozzi et al., J. Phys.:Condens. Matter 21 395502 (2009);
         "P. Giannozzi et al., J. Phys.:Condens. Matter 29 465901 (2017);
          URL http://www.quantum-espresso.org", 
     in publications or presentations arising from this work. More details at
     http://www.quantum-espresso.org/quote

     Parallel version (MPI), running on     4 processors

     MPI processes distributed on     1 nodes
     R & G space division:  proc/nbgrp/npool/nimage =       4
     Reading input from wd/ecut/file_000043.in
Warning: card &IONS ignored
Warning: card ION_DYNAMICS = 'BFGS', ignored
Warning: card / ignored
Warning: card &CELL ignored
Warning: card CELL_DYNAMICS = 'BFGS', ignored
Warning: card CELL_FACTOR = 2.0, ignored
Warning: card PRESS = 0.0, ignored
Warning: card / ignored

     Current dimensions of program PWSCF are:
     Max number of different atomic species (ntypx) = 10
     Max number of k-points (npk) =  40000
     Max angular momentum in pseudopotentials (lmaxx) =  3
               file Al.pbe-nl-kjpaw_psl.1.0.0.UPF: wavefunction(s)  3S 3P renormalized

     Subspace diagonalization in iterative solution of the eigenvalue problem:
     a serial algorithm will be used


     Parallelization info
     --------------------
     sticks:   dense  smooth     PW     G-vecs:    dense   smooth      PW
     Min         122     122     53                 2054     2054     575
     Max         123     123     54                 2055     2055     576
     Sum         489     489    213                 8217     8217    2301



     bravais-lattice index     =            0
     lattice parameter (alat)  =       7.6356  a.u.
     unit-cell volume          =     445.1737 (a.u.)^3
     number of atoms/cell      =            4
     number of atomic types    =            1
     number of electrons       =        12.00
     number of Kohn-Sham states=           10
     kinetic-energy cutoff     =      36.0000  Ry
     charge density cutoff     =     105.0000  Ry
     convergence threshold     =      1.0E-06
     mixing beta               =       0.1000
     number of iterations used =           10  TF        mixing
     Exchange-correlation      = SLA PW PBX PBC ( 1  4  3  4 0 0)

     celldm(1)=   7.635600  celldm(2)=   0.000000  celldm(3)=   0.000000
     celldm(4)=   0.000000  celldm(5)=   0.000000  celldm(6)=   0.000000

     crystal axes: (cart. coord. in units of alat)
               a(1) = (   1.000000   0.000000   0.000000 )  
               a(2) = (   0.000000   1.000000   0.000000 )  
               a(3) = (   0.000000   0.000000   1.000000 )  

     reciprocal axes: (cart. coord. in units 2 pi/alat)
               b(1) = (  1.000000  0.000000  0.000000 )  
               b(2) = (  0.000000  1.000000  0.000000 )  
               b(3) = (  0.000000  0.000000  1.000000 )  


     PseudoPot. # 1 for Al read from file:
     /opt/pp/Al.pbe-nl-kjpaw_psl.1.0.0.UPF
     MD5 check sum: 1b67f78b73fe58c7924490f171ce8a1e
     Pseudo is Projector augmented-wave + core cor, Zval =  3.0
     Generated using "atomic" code by A. Dal Corso v.6.3
     Shape of augmentation charge: PSQ
     Using radial grid of 1135 points,  4 beta functions with: 
                l(1) =   0
                l(2) =   0
                l(3) =   1
                l(4) =   1
     Q(r) pseudized with 0 coefficients 


     atomic species   valence    mass     pseudopotential
        Al             3.00    26.98200     Al( 1.00)

     No symmetry found



   Cartesian axes

     site n.     atom                  positions (alat units)
         1           Al  tau(   1) = (  -0.0000654   0.0000190   0.0001361  )
         2           Al  tau(   2) = (   0.5001592   0.4996200   0.0001406  )
         3           Al  tau(   3) = (   0.4998143   0.0000610   0.5005910  )
         4           Al  tau(   4) = (  -0.0000400   0.5004374   0.5003674  )

     number of k points=    63  Marzari-Vanderbilt smearing, width (Ry)=  0.0200
                       cart. coord. in units 2pi/alat
        k(    1) = (   0.1000000   0.1000000   0.1000000), wk =   0.0320000
        k(    2) = (   0.1000000   0.1000000   0.3000000), wk =   0.0320000
        k(    3) = (   0.1000000   0.1000000  -0.5000000), wk =   0.0320000
        k(    4) = (   0.1000000   0.3000000   0.3000000), wk =   0.0320000
        k(    5) = (   0.1000000   0.3000000  -0.5000000), wk =   0.0320000
        k(    6) = (   0.1000000  -0.5000000  -0.5000000), wk =   0.0320000
        k(    7) = (   0.3000000   0.3000000   0.3000000), wk =   0.0320000
        k(    8) = (   0.3000000   0.3000000  -0.5000000), wk =   0.0320000
        k(    9) = (   0.3000000  -0.5000000  -0.5000000), wk =   0.0320000
        k(   10) = (  -0.5000000  -0.5000000  -0.5000000), wk =   0.0160000
        k(   11) = (  -0.1000000  -0.1000000   0.1000000), wk =   0.0320000
        k(   12) = (  -0.1000000   0.1000000  -0.1000000), wk =   0.0320000
        k(   13) = (   0.1000000  -0.1000000  -0.1000000), wk =   0.0320000
        k(   14) = (  -0.1000000  -0.1000000   0.3000000), wk =   0.0320000
        k(   15) = (  -0.1000000   0.1000000  -0.3000000), wk =   0.0320000
        k(   16) = (   0.1000000  -0.1000000  -0.3000000), wk =   0.0320000
        k(   17) = (   0.3000000  -0.1000000   0.1000000), wk =   0.0320000
        k(   18) = (  -0.3000000  -0.1000000  -0.1000000), wk =   0.0320000
        k(   19) = (   0.3000000   0.1000000  -0.1000000), wk =   0.0320000
        k(   20) = (  -0.3000000   0.1000000   0.1000000), wk =   0.0320000
        k(   21) = (  -0.1000000   0.3000000   0.1000000), wk =   0.0320000
        k(   22) = (  -0.1000000  -0.3000000  -0.1000000), wk =   0.0320000
        k(   23) = (   0.1000000   0.3000000  -0.1000000), wk =   0.0320000
        k(   24) = (   0.1000000  -0.3000000   0.1000000), wk =   0.0320000
        k(   25) = (  -0.1000000   0.1000000   0.5000000), wk =   0.0320000
        k(   26) = (  -0.5000000  -0.1000000   0.1000000), wk =   0.0320000
        k(   27) = (   0.5000000  -0.1000000  -0.1000000), wk =   0.0320000
        k(   28) = (  -0.1000000  -0.5000000   0.1000000), wk =   0.0320000
        k(   29) = (  -0.1000000   0.5000000  -0.1000000), wk =   0.0320000
        k(   30) = (  -0.1000000  -0.3000000   0.3000000), wk =   0.0320000
        k(   31) = (  -0.1000000   0.3000000  -0.3000000), wk =   0.0320000
        k(   32) = (   0.1000000  -0.3000000  -0.3000000), wk =   0.0320000
        k(   33) = (   0.3000000   0.1000000  -0.3000000), wk =   0.0320000
        k(   34) = (  -0.3000000  -0.1000000  -0.3000000), wk =   0.0320000
        k(   35) = (   0.3000000  -0.1000000   0.3000000), wk =   0.0320000
        k(   36) = (  -0.3000000   0.1000000   0.3000000), wk =   0.0320000
        k(   37) = (   0.3000000  -0.3000000   0.1000000), wk =   0.0320000
        k(   38) = (  -0.3000000  -0.3000000  -0.1000000), wk =   0.0320000
        k(   39) = (   0.3000000   0.3000000  -0.1000000), wk =   0.0320000
        k(   40) = (  -0.3000000   0.3000000   0.1000000), wk =   0.0320000
        k(   41) = (  -0.1000000   0.3000000   0.5000000), wk =   0.0320000
        k(   42) = (   0.3000000   0.1000000   0.5000000), wk =   0.0320000
        k(   43) = (   0.3000000  -0.1000000  -0.5000000), wk =   0.0320000
        k(   44) = (  -0.5000000  -0.3000000   0.1000000), wk =   0.0320000
        k(   45) = (   0.5000000  -0.3000000  -0.1000000), wk =   0.0320000
        k(   46) = (  -0.1000000  -0.5000000   0.3000000), wk =   0.0320000
        k(   47) = (  -0.1000000   0.5000000  -0.3000000), wk =   0.0320000
        k(   48) = (   0.3000000  -0.5000000   0.1000000), wk =   0.0320000
        k(   49) = (   0.3000000   0.5000000  -0.1000000), wk =   0.0320000
        k(   50) = (  -0.5000000   0.1000000   0.3000000), wk =   0.0320000
        k(   51) = (   0.5000000  -0.1000000   0.3000000), wk =   0.0320000
        k(   52) = (  -0.5000000   0.1000000   0.5000000), wk =   0.0320000
        k(   53) = (  -0.5000000   0.5000000   0.1000000), wk =   0.0320000
        k(   54) = (  -0.3000000  -0.3000000   0.3000000), wk =   0.0320000
        k(   55) = (  -0.3000000   0.3000000  -0.3000000), wk =   0.0320000
        k(   56) = (   0.3000000  -0.3000000  -0.3000000), wk =   0.0320000
        k(   57) = (  -0.3000000   0.3000000   0.5000000), wk =   0.0320000
        k(   58) = (  -0.5000000  -0.3000000   0.3000000), wk =   0.0320000
        k(   59) = (   0.5000000  -0.3000000  -0.3000000), wk =   0.0320000
        k(   60) = (  -0.3000000  -0.5000000   0.3000000), wk =   0.0320000
        k(   61) = (  -0.3000000   0.5000000  -0.3000000), wk =   0.0320000
        k(   62) = (  -0.5000000   0.3000000   0.5000000), wk =   0.0320000
        k(   63) = (  -0.5000000   0.5000000   0.3000000), wk =   0.0320000

     Dense  grid:     8217 G-vectors     FFT dimensions: (  25,  25,  25)

     Estimated max dynamical RAM per process >       7.41 MB

     Estimated total dynamical RAM >      29.64 MB

     Initial potential from superposition of free atoms

     starting charge   11.99084, renormalised to   12.00000
     Starting wfcs are   16 randomized atomic wfcs
     Checking if some PAW data can be deallocated... 

     total cpu time spent up to now is        0.8 secs

     Self-consistent Calculation

     iteration #  1     ecut=    36.00 Ry     beta= 0.10
     Davidson diagonalization with overlap
     ethr =  1.00E-02,  avg # of iterations =  3.1

     Threshold (ethr) on eigenvalues was too large:
     Diagonalizing with lowered threshold

     Davidson diagonalization with overlap
     ethr =  1.95E-04,  avg # of iterations =  3.7

     total cpu time spent up to now is        2.2 secs

     total energy              =    -158.00532749 Ry
     Harris-Foulkes estimate   =    -158.00614205 Ry
     estimated scf accuracy    <       0.02273556 Ry

     iteration #  2     ecut=    36.00 Ry     beta= 0.10
     Davidson diagonalization with overlap
     ethr =  1.89E-04,  avg # of iterations =  1.1

     total cpu time spent up to now is        2.7 secs

     total energy              =    -157.99936676 Ry
     Harris-Foulkes estimate   =    -158.00545441 Ry
     estimated scf accuracy    <       0.01959380 Ry

     iteration #  3     ecut=    36.00 Ry     beta= 0.10
     Davidson diagonalization with overlap
     ethr =  1.63E-04,  avg # of iterations =  1.0

     total cpu time spent up to now is        3.2 secs

     total energy              =    -157.99969198 Ry
     Harris-Foulkes estimate   =    -157.99973773 Ry
     estimated scf accuracy    <       0.00009405 Ry

     iteration #  4     ecut=    36.00 Ry     beta= 0.10
     Davidson diagonalization with overlap
     ethr =  7.84E-07,  avg # of iterations =  4.8

     total cpu time spent up to now is        4.1 secs

     total energy              =    -157.99975273 Ry
     Harris-Foulkes estimate   =    -157.99976683 Ry
     estimated scf accuracy    <       0.00005440 Ry

     iteration #  5     ecut=    36.00 Ry     beta= 0.10
     Davidson diagonalization with overlap
     ethr =  4.53E-07,  avg # of iterations =  1.0

     total cpu time spent up to now is        4.5 secs

     total energy              =    -157.99970916 Ry
     Harris-Foulkes estimate   =    -157.99975403 Ry
     estimated scf accuracy    <       0.00004117 Ry

     iteration #  6     ecut=    36.00 Ry     beta= 0.10
     Davidson diagonalization with overlap
     ethr =  3.43E-07,  avg # of iterations =  2.0

     total cpu time spent up to now is        5.1 secs

     End of self-consistent calculation

          k = 0.1000 0.1000 0.1000 (  1635 PWs)   bands (ev):

    -2.9614   4.0414   4.0437   4.0461   7.7414   7.7441   7.7467  10.7604
    10.7634  10.7663

          k = 0.1000 0.1000 0.3000 (  1628 PWs)   bands (ev):

    -2.2390   1.3157   4.7246   4.7280   8.0300   8.0360   8.5369   8.5375
    11.3566  11.7964

          k = 0.1000 0.1000-0.5000 (  1626 PWs)   bands (ev):

    -0.8087  -0.8018   5.9696   5.9703   6.2107   6.2117   9.5132   9.5137
    10.1741  10.1752

          k = 0.1000 0.3000 0.3000 (  1612 PWs)   bands (ev):

    -1.5202   2.0151   2.0183   5.3104   5.5762   8.7946   8.7989   9.1503
    12.1857  12.1923

          k = 0.1000 0.3000-0.5000 (  1630 PWs)   bands (ev):

    -0.0970  -0.0901   3.4039   3.4110   6.7765   6.7841  10.1400  10.1479
    10.4850  10.4915

          k = 0.1000-0.5000-0.5000 (  1632 PWs)   bands (ev):

     1.3154   1.3158   1.3224   1.3235   8.1280   8.1286   8.1360   8.1373
    11.8290  11.8316

          k = 0.3000 0.3000 0.3000 (  1622 PWs)   bands (ev):

    -0.8050   2.7114   2.7138   2.7163   6.1652   6.1679   6.1706   9.5503
    13.0702  13.0739

          k = 0.3000 0.3000-0.5000 (  1622 PWs)   bands (ev):

     0.6114   0.6183   3.9825   3.9831   4.2315   4.2324   7.5263   7.5337
    14.1705  14.5702

          k = 0.3000-0.5000-0.5000 (  1612 PWs)   bands (ev):

     2.0166   2.0171   2.0237   2.0248   5.4859   5.4864   5.4932   5.4944
    15.6215  15.6261

          k =-0.5000-0.5000-0.5000 (  1640 PWs)   bands (ev):

     3.3109   3.3111   3.3113   3.3119   3.5277   3.5288   3.5290   3.5294
    19.3118  19.3122

          k =-0.1000-0.1000 0.1000 (  1635 PWs)   bands (ev):

    -2.9614   4.0419   4.0438   4.0456   7.7419   7.7441   7.7461  10.7610
    10.7634  10.7657

          k =-0.1000 0.1000-0.1000 (  1635 PWs)   bands (ev):

    -2.9614   4.0425   4.0437   4.0451   7.7426   7.7440   7.7456  10.7617
    10.7634  10.7651

          k = 0.1000-0.1000-0.1000 (  1635 PWs)   bands (ev):

    -2.9614   4.0421   4.0438   4.0454   7.7422   7.7441   7.7459  10.7613
    10.7634  10.7654

          k =-0.1000-0.1000 0.3000 (  1628 PWs)   bands (ev):

    -2.2390   1.3157   4.7246   4.7280   8.0300   8.0360   8.5369   8.5375
    11.3566  11.7964

          k =-0.1000 0.1000-0.3000 (  1628 PWs)   bands (ev):

    -2.2390   1.3157   4.7255   4.7271   8.0316   8.0344   8.5370   8.5373
    11.3566  11.7965

          k = 0.1000-0.1000-0.3000 (  1628 PWs)   bands (ev):

    -2.2390   1.3157   4.7256   4.7271   8.0316   8.0344   8.5371   8.5373
    11.3566  11.7969

          k = 0.3000-0.1000 0.1000 (  1628 PWs)   bands (ev):

    -2.2390   1.3157   4.7255   4.7271   8.0316   8.0344   8.5370   8.5374
    11.3566  11.7967

          k =-0.3000-0.1000-0.1000 (  1628 PWs)   bands (ev):

    -2.2390   1.3157   4.7249   4.7278   8.0304   8.0356   8.5369   8.5375
    11.3566  11.7969

          k = 0.3000 0.1000-0.1000 (  1628 PWs)   bands (ev):

    -2.2390   1.3157   4.7255   4.7271   8.0316   8.0344   8.5370   8.5374
    11.3566  11.7964

          k =-0.3000 0.1000 0.1000 (  1628 PWs)   bands (ev):

    -2.2390   1.3157   4.7249   4.7278   8.0304   8.0356   8.5369   8.5375
    11.3566  11.7966

          k =-0.1000 0.3000 0.1000 (  1628 PWs)   bands (ev):

    -2.2390   1.3157   4.7261   4.7266   8.0325   8.0334   8.5371   8.5373
    11.3566  11.7972

          k =-0.1000-0.3000-0.1000 (  1628 PWs)   bands (ev):

    -2.2390   1.3157   4.7256   4.7270   8.0316   8.0344   8.5371   8.5372
    11.3566  11.7960

          k = 0.1000 0.3000-0.1000 (  1628 PWs)   bands (ev):

    -2.2390   1.3157   4.7261   4.7266   8.0325   8.0334   8.5371   8.5373
    11.3566  11.7958

          k = 0.1000-0.3000 0.1000 (  1628 PWs)   bands (ev):

    -2.2390   1.3157   4.7256   4.7270   8.0316   8.0344   8.5371   8.5372
    11.3566  11.7959

          k =-0.1000 0.1000 0.5000 (  1626 PWs)   bands (ev):

    -0.8087  -0.8018   5.9696   5.9702   6.2107   6.2117   9.5133   9.5137
    10.1741  10.1752

          k =-0.5000-0.1000 0.1000 (  1626 PWs)   bands (ev):

    -0.8057  -0.8047   5.9697   5.9702   6.2108   6.2115   9.5133   9.5136
    10.1742  10.1751

          k = 0.5000-0.1000-0.1000 (  1626 PWs)   bands (ev):

    -0.8057  -0.8047   5.9697   5.9702   6.2108   6.2115   9.5133   9.5136
    10.1742  10.1751

          k =-0.1000-0.5000 0.1000 (  1626 PWs)   bands (ev):

    -0.8055  -0.8050   5.9699   5.9701   6.2109   6.2113   9.5134   9.5135
    10.1744  10.1748

          k =-0.1000 0.5000-0.1000 (  1626 PWs)   bands (ev):

    -0.8055  -0.8050   5.9698   5.9701   6.2110   6.2113   9.5134   9.5136
    10.1745  10.1748

          k =-0.1000-0.3000 0.3000 (  1612 PWs)   bands (ev):

    -1.5202   2.0158   2.0176   5.3104   5.5762   8.7956   8.7980   9.1503
    12.1873  12.1909

          k =-0.1000 0.3000-0.3000 (  1612 PWs)   bands (ev):

    -1.5202   2.0158   2.0176   5.3104   5.5762   8.7956   8.7980   9.1503
    12.1869  12.1910

          k = 0.1000-0.3000-0.3000 (  1612 PWs)   bands (ev):

    -1.5202   2.0151   2.0183   5.3104   5.5762   8.7946   8.7989   9.1503
    12.1861  12.1924

          k = 0.3000 0.1000-0.3000 (  1612 PWs)   bands (ev):

    -1.5202   2.0164   2.0170   5.3104   5.5762   8.7964   8.7972   9.1503
    12.1887  12.1897

          k =-0.3000-0.1000-0.3000 (  1612 PWs)   bands (ev):

    -1.5202   2.0159   2.0175   5.3104   5.5762   8.7956   8.7979   9.1503
    12.1874  12.1908

          k = 0.3000-0.1000 0.3000 (  1612 PWs)   bands (ev):

    -1.5202   2.0159   2.0175   5.3104   5.5762   8.7956   8.7979   9.1503
    12.1875  12.1906

          k =-0.3000 0.1000 0.3000 (  1612 PWs)   bands (ev):

    -1.5202   2.0164   2.0170   5.3104   5.5762   8.7964   8.7971   9.1503
    12.1880  12.1896

          k = 0.3000-0.3000 0.1000 (  1612 PWs)   bands (ev):

    -1.5202   2.0159   2.0175   5.3104   5.5762   8.7956   8.7979   9.1503
    12.1874  12.1909

          k =-0.3000-0.3000-0.1000 (  1612 PWs)   bands (ev):

    -1.5202   2.0149   2.0185   5.3104   5.5762   8.7943   8.7993   9.1503
    12.1850  12.1898

          k = 0.3000 0.3000-0.1000 (  1612 PWs)   bands (ev):

    -1.5202   2.0149   2.0185   5.3104   5.5762   8.7943   8.7993   9.1503
    12.1853  12.1930

          k =-0.3000 0.3000 0.1000 (  1612 PWs)   bands (ev):

    -1.5202   2.0159   2.0175   5.3104   5.5762   8.7956   8.7979   9.1503
    12.1863  12.1904

          k =-0.1000 0.3000 0.5000 (  1630 PWs)   bands (ev):

    -0.0970  -0.0901   3.4039   3.4110   6.7765   6.7841  10.1399  10.1479
    10.4850  10.4915

          k = 0.3000 0.1000 0.5000 (  1630 PWs)   bands (ev):

    -0.0970  -0.0901   3.4039   3.4110   6.7765   6.7841  10.1399  10.1479
    10.4850  10.4915

          k = 0.3000-0.1000-0.5000 (  1630 PWs)   bands (ev):

    -0.0970  -0.0901   3.4039   3.4110   6.7766   6.7841  10.1399  10.1479
    10.4850  10.4915

          k =-0.5000-0.3000 0.1000 (  1630 PWs)   bands (ev):

    -0.0940  -0.0930   3.4070   3.4079   6.7798   6.7808  10.1434  10.1445
    10.4878  10.4887

          k = 0.5000-0.3000-0.1000 (  1630 PWs)   bands (ev):

    -0.0940  -0.0930   3.4070   3.4079   6.7798   6.7808  10.1434  10.1444
    10.4878  10.4887

          k =-0.1000-0.5000 0.3000 (  1630 PWs)   bands (ev):

    -0.0938  -0.0933   3.4072   3.4077   6.7801   6.7806  10.1437  10.1442
    10.4880  10.4885

          k =-0.1000 0.5000-0.3000 (  1630 PWs)   bands (ev):

    -0.0938  -0.0933   3.4072   3.4077   6.7801   6.7806  10.1437  10.1442
    10.4880  10.4885

          k = 0.3000-0.5000 0.1000 (  1630 PWs)   bands (ev):

    -0.0938  -0.0933   3.4072   3.4077   6.7801   6.7806  10.1437  10.1442
    10.4880  10.4885

          k = 0.3000 0.5000-0.1000 (  1630 PWs)   bands (ev):

    -0.0938  -0.0933   3.4072   3.4077   6.7801   6.7806  10.1437  10.1442
    10.4880  10.4885

          k =-0.5000 0.1000 0.3000 (  1630 PWs)   bands (ev):

    -0.0940  -0.0930   3.4070   3.4079   6.7798   6.7808  10.1434  10.1444
    10.4878  10.4887

          k = 0.5000-0.1000 0.3000 (  1630 PWs)   bands (ev):

    -0.0940  -0.0930   3.4070   3.4079   6.7798   6.7808  10.1434  10.1445
    10.4878  10.4887

          k =-0.5000 0.1000 0.5000 (  1632 PWs)   bands (ev):

     1.3154   1.3161   1.3221   1.3235   8.1282   8.1289   8.1356   8.1372
    11.8276  11.8309

          k =-0.5000 0.5000 0.1000 (  1632 PWs)   bands (ev):

     1.3173   1.3184   1.3200   1.3213   8.1300   8.1314   8.1335   8.1351
    11.8295  11.8308

          k =-0.3000-0.3000 0.3000 (  1622 PWs)   bands (ev):

    -0.8050   2.7119   2.7139   2.7158   6.1657   6.1679   6.1700   9.5503
    13.0710  13.0740

          k =-0.3000 0.3000-0.3000 (  1622 PWs)   bands (ev):

    -0.8050   2.7125   2.7138   2.7153   6.1664   6.1679   6.1694   9.5503
    13.0707  13.0732

          k = 0.3000-0.3000-0.3000 (  1622 PWs)   bands (ev):

    -0.8050   2.7121   2.7139   2.7156   6.1660   6.1679   6.1698   9.5503
    13.0699  13.0730

          k =-0.3000 0.3000 0.5000 (  1622 PWs)   bands (ev):

     0.6114   0.6183   3.9825   3.9831   4.2315   4.2324   7.5263   7.5337
    14.5685  14.5699

          k =-0.5000-0.3000 0.3000 (  1622 PWs)   bands (ev):

     0.6143   0.6153   3.9826   3.9831   4.2315   4.2323   7.5295   7.5305
    14.5692  14.5700

          k = 0.5000-0.3000-0.3000 (  1622 PWs)   bands (ev):

     0.6143   0.6153   3.9826   3.9831   4.2315   4.2323   7.5295   7.5305
    14.1702  14.1705

          k =-0.3000-0.5000 0.3000 (  1622 PWs)   bands (ev):

     0.6146   0.6151   3.9828   3.9829   4.2317   4.2321   7.5297   7.5302
    14.5692  14.5699

          k =-0.3000 0.5000-0.3000 (  1622 PWs)   bands (ev):

     0.6146   0.6151   3.9827   3.9830   4.2317   4.2321   7.5298   7.5302
    14.1705  14.5698

          k =-0.5000 0.3000 0.5000 (  1612 PWs)   bands (ev):

     2.0167   2.0174   2.0234   2.0247   5.4860   5.4867   5.4929   5.4943
    15.6213  15.6285

          k =-0.5000 0.5000 0.3000 (  1612 PWs)   bands (ev):

     2.0186   2.0197   2.0212   2.0225   5.4880   5.4891   5.4907   5.4921
    15.6239  15.6250

     the Fermi energy is     8.0543 ev

!    total energy              =    -157.99971888 Ry
     Harris-Foulkes estimate   =    -157.99971907 Ry
     estimated scf accuracy    <       0.00000095 Ry

     total all-electron energy =     -1942.570841 Ry

     The total energy is the sum of the following terms:

     one-electron contribution =      12.66578719 Ry
     hartree contribution      =       0.02379119 Ry
     xc contribution           =     -10.36288169 Ry
     ewald contribution        =     -21.61650270 Ry
     one-center paw contrib.   =    -138.70809699 Ry
     smearing contrib. (-TS)   =      -0.00181588 Ry

     convergence has been achieved in   6 iterations

     Forces acting on atoms (cartesian axes, Ry/au):

     atom    1 type  1   force =     0.00005595   -0.00004682    0.00020374
     atom    2 type  1   force =    -0.00015230    0.00016245    0.00020569
     atom    3 type  1   force =     0.00003779    0.00005411   -0.00030084
     atom    4 type  1   force =     0.00005855   -0.00016974   -0.00010860

     Total force =     0.000527     Total SCF correction =     0.000225
     SCF correction compared to forces is large: reduce conv_thr to get better values


     Computing stress (Cartesian axis) and pressure

          total   stress  (Ry/bohr**3)                   (kbar)     P=   -0.99
  -0.00000676   0.00000000   0.00000001         -0.99      0.00      0.00
   0.00000000  -0.00000674   0.00000001          0.00     -0.99      0.00
   0.00000001   0.00000001  -0.00000675          0.00      0.00     -0.99


     Writing output data file fe_scf_fcc_2.save/

     init_run     :      0.39s CPU      0.40s WALL (       1 calls)
     electrons    :      4.01s CPU      4.31s WALL (       1 calls)
     forces       :      0.10s CPU      0.10s WALL (       1 calls)
     stress       :      0.18s CPU      0.18s WALL (       1 calls)

     Called by init_run:
     wfcinit      :      0.29s CPU      0.30s WALL (       1 calls)
     potinit      :      0.05s CPU      0.05s WALL (       1 calls)
     hinit0       :      0.05s CPU      0.05s WALL (       1 calls)

     Called by electrons:
     c_bands      :      3.29s CPU      3.53s WALL (       7 calls)
     sum_band     :      0.45s CPU      0.49s WALL (       7 calls)
     v_of_rho     :      0.02s CPU      0.02s WALL (       7 calls)
     newd         :      0.01s CPU      0.01s WALL (       7 calls)
     PAW_pot      :      0.28s CPU      0.30s WALL (       7 calls)
     mix_rho      :      0.00s CPU      0.00s WALL (       7 calls)

     Called by c_bands:
     init_us_2    :      0.08s CPU      0.09s WALL (    1071 calls)
     cegterg      :      3.14s CPU      3.37s WALL (     441 calls)

     Called by sum_band:
     sum_band:bec :      0.00s CPU      0.00s WALL (     441 calls)
     addusdens    :      0.01s CPU      0.01s WALL (       7 calls)

     Called by *egterg:
     h_psi        :      2.20s CPU      2.37s WALL (    1551 calls)
     s_psi        :      0.20s CPU      0.22s WALL (    1551 calls)
     g_psi        :      0.01s CPU      0.01s WALL (    1047 calls)
     cdiaghg      :      0.24s CPU      0.25s WALL (    1425 calls)

     Called by h_psi:
     h_psi:pot    :      2.19s CPU      2.36s WALL (    1551 calls)
     h_psi:calbec :      0.34s CPU      0.36s WALL (    1551 calls)
     vloc_psi     :      1.65s CPU      1.78s WALL (    1551 calls)
     add_vuspsi   :      0.20s CPU      0.22s WALL (    1551 calls)

     General routines
     calbec       :      0.57s CPU      0.61s WALL (    2307 calls)
     fft          :      0.01s CPU      0.01s WALL (     103 calls)
     ffts         :      0.00s CPU      0.00s WALL (       7 calls)
     fftw         :      1.80s CPU      1.94s WALL (   29302 calls)

     Parallel routines
     fft_scatt_xy :      0.18s CPU      0.20s WALL (   29412 calls)
     fft_scatt_yz :      0.97s CPU      1.04s WALL (   29412 calls)

     PWSCF        :      5.13s CPU      5.48s WALL


   This run was terminated on:   6:21:10  11Mar2020            

=------------------------------------------------------------------------------=
   JOB DONE.
=------------------------------------------------------------------------------=
