
     Program PWSCF v.6.4.1 starts on 11Mar2020 at  6:20:59 

     This program is part of the open-source Quantum ESPRESSO suite
     for quantum simulation of materials; please cite
         "P. Giannozzi et al., J. Phys.:Condens. Matter 21 395502 (2009);
         "P. Giannozzi et al., J. Phys.:Condens. Matter 29 465901 (2017);
          URL http://www.quantum-espresso.org", 
     in publications or presentations arising from this work. More details at
     http://www.quantum-espresso.org/quote

     Parallel version (MPI), running on     4 processors

     MPI processes distributed on     1 nodes
     R & G space division:  proc/nbgrp/npool/nimage =       4
     Reading input from wd/ecut/file_000042.in
Warning: card &IONS ignored
Warning: card ION_DYNAMICS = 'BFGS', ignored
Warning: card / ignored
Warning: card &CELL ignored
Warning: card CELL_DYNAMICS = 'BFGS', ignored
Warning: card CELL_FACTOR = 2.0, ignored
Warning: card PRESS = 0.0, ignored
Warning: card / ignored

     Current dimensions of program PWSCF are:
     Max number of different atomic species (ntypx) = 10
     Max number of k-points (npk) =  40000
     Max angular momentum in pseudopotentials (lmaxx) =  3
               file Al.pbe-nl-kjpaw_psl.1.0.0.UPF: wavefunction(s)  3S 3P renormalized

     Subspace diagonalization in iterative solution of the eigenvalue problem:
     a serial algorithm will be used


     Parallelization info
     --------------------
     sticks:   dense  smooth     PW     G-vecs:    dense   smooth      PW
     Min         122     122     55                 2054     2054     593
     Max         123     123     56                 2055     2055     594
     Sum         489     489    221                 8217     8217    2373



     bravais-lattice index     =            0
     lattice parameter (alat)  =       7.6356  a.u.
     unit-cell volume          =     445.1737 (a.u.)^3
     number of atoms/cell      =            4
     number of atomic types    =            1
     number of electrons       =        12.00
     number of Kohn-Sham states=           10
     kinetic-energy cutoff     =      37.0000  Ry
     charge density cutoff     =     105.0000  Ry
     convergence threshold     =      1.0E-06
     mixing beta               =       0.1000
     number of iterations used =           10  TF        mixing
     Exchange-correlation      = SLA PW PBX PBC ( 1  4  3  4 0 0)

     celldm(1)=   7.635600  celldm(2)=   0.000000  celldm(3)=   0.000000
     celldm(4)=   0.000000  celldm(5)=   0.000000  celldm(6)=   0.000000

     crystal axes: (cart. coord. in units of alat)
               a(1) = (   1.000000   0.000000   0.000000 )  
               a(2) = (   0.000000   1.000000   0.000000 )  
               a(3) = (   0.000000   0.000000   1.000000 )  

     reciprocal axes: (cart. coord. in units 2 pi/alat)
               b(1) = (  1.000000  0.000000  0.000000 )  
               b(2) = (  0.000000  1.000000  0.000000 )  
               b(3) = (  0.000000  0.000000  1.000000 )  


     PseudoPot. # 1 for Al read from file:
     /opt/pp/Al.pbe-nl-kjpaw_psl.1.0.0.UPF
     MD5 check sum: 1b67f78b73fe58c7924490f171ce8a1e
     Pseudo is Projector augmented-wave + core cor, Zval =  3.0
     Generated using "atomic" code by A. Dal Corso v.6.3
     Shape of augmentation charge: PSQ
     Using radial grid of 1135 points,  4 beta functions with: 
                l(1) =   0
                l(2) =   0
                l(3) =   1
                l(4) =   1
     Q(r) pseudized with 0 coefficients 


     atomic species   valence    mass     pseudopotential
        Al             3.00    26.98200     Al( 1.00)

     No symmetry found



   Cartesian axes

     site n.     atom                  positions (alat units)
         1           Al  tau(   1) = (  -0.0000654   0.0000190   0.0001361  )
         2           Al  tau(   2) = (   0.5001592   0.4996200   0.0001406  )
         3           Al  tau(   3) = (   0.4998143   0.0000610   0.5005910  )
         4           Al  tau(   4) = (  -0.0000400   0.5004374   0.5003674  )

     number of k points=    63  Marzari-Vanderbilt smearing, width (Ry)=  0.0200
                       cart. coord. in units 2pi/alat
        k(    1) = (   0.1000000   0.1000000   0.1000000), wk =   0.0320000
        k(    2) = (   0.1000000   0.1000000   0.3000000), wk =   0.0320000
        k(    3) = (   0.1000000   0.1000000  -0.5000000), wk =   0.0320000
        k(    4) = (   0.1000000   0.3000000   0.3000000), wk =   0.0320000
        k(    5) = (   0.1000000   0.3000000  -0.5000000), wk =   0.0320000
        k(    6) = (   0.1000000  -0.5000000  -0.5000000), wk =   0.0320000
        k(    7) = (   0.3000000   0.3000000   0.3000000), wk =   0.0320000
        k(    8) = (   0.3000000   0.3000000  -0.5000000), wk =   0.0320000
        k(    9) = (   0.3000000  -0.5000000  -0.5000000), wk =   0.0320000
        k(   10) = (  -0.5000000  -0.5000000  -0.5000000), wk =   0.0160000
        k(   11) = (  -0.1000000  -0.1000000   0.1000000), wk =   0.0320000
        k(   12) = (  -0.1000000   0.1000000  -0.1000000), wk =   0.0320000
        k(   13) = (   0.1000000  -0.1000000  -0.1000000), wk =   0.0320000
        k(   14) = (  -0.1000000  -0.1000000   0.3000000), wk =   0.0320000
        k(   15) = (  -0.1000000   0.1000000  -0.3000000), wk =   0.0320000
        k(   16) = (   0.1000000  -0.1000000  -0.3000000), wk =   0.0320000
        k(   17) = (   0.3000000  -0.1000000   0.1000000), wk =   0.0320000
        k(   18) = (  -0.3000000  -0.1000000  -0.1000000), wk =   0.0320000
        k(   19) = (   0.3000000   0.1000000  -0.1000000), wk =   0.0320000
        k(   20) = (  -0.3000000   0.1000000   0.1000000), wk =   0.0320000
        k(   21) = (  -0.1000000   0.3000000   0.1000000), wk =   0.0320000
        k(   22) = (  -0.1000000  -0.3000000  -0.1000000), wk =   0.0320000
        k(   23) = (   0.1000000   0.3000000  -0.1000000), wk =   0.0320000
        k(   24) = (   0.1000000  -0.3000000   0.1000000), wk =   0.0320000
        k(   25) = (  -0.1000000   0.1000000   0.5000000), wk =   0.0320000
        k(   26) = (  -0.5000000  -0.1000000   0.1000000), wk =   0.0320000
        k(   27) = (   0.5000000  -0.1000000  -0.1000000), wk =   0.0320000
        k(   28) = (  -0.1000000  -0.5000000   0.1000000), wk =   0.0320000
        k(   29) = (  -0.1000000   0.5000000  -0.1000000), wk =   0.0320000
        k(   30) = (  -0.1000000  -0.3000000   0.3000000), wk =   0.0320000
        k(   31) = (  -0.1000000   0.3000000  -0.3000000), wk =   0.0320000
        k(   32) = (   0.1000000  -0.3000000  -0.3000000), wk =   0.0320000
        k(   33) = (   0.3000000   0.1000000  -0.3000000), wk =   0.0320000
        k(   34) = (  -0.3000000  -0.1000000  -0.3000000), wk =   0.0320000
        k(   35) = (   0.3000000  -0.1000000   0.3000000), wk =   0.0320000
        k(   36) = (  -0.3000000   0.1000000   0.3000000), wk =   0.0320000
        k(   37) = (   0.3000000  -0.3000000   0.1000000), wk =   0.0320000
        k(   38) = (  -0.3000000  -0.3000000  -0.1000000), wk =   0.0320000
        k(   39) = (   0.3000000   0.3000000  -0.1000000), wk =   0.0320000
        k(   40) = (  -0.3000000   0.3000000   0.1000000), wk =   0.0320000
        k(   41) = (  -0.1000000   0.3000000   0.5000000), wk =   0.0320000
        k(   42) = (   0.3000000   0.1000000   0.5000000), wk =   0.0320000
        k(   43) = (   0.3000000  -0.1000000  -0.5000000), wk =   0.0320000
        k(   44) = (  -0.5000000  -0.3000000   0.1000000), wk =   0.0320000
        k(   45) = (   0.5000000  -0.3000000  -0.1000000), wk =   0.0320000
        k(   46) = (  -0.1000000  -0.5000000   0.3000000), wk =   0.0320000
        k(   47) = (  -0.1000000   0.5000000  -0.3000000), wk =   0.0320000
        k(   48) = (   0.3000000  -0.5000000   0.1000000), wk =   0.0320000
        k(   49) = (   0.3000000   0.5000000  -0.1000000), wk =   0.0320000
        k(   50) = (  -0.5000000   0.1000000   0.3000000), wk =   0.0320000
        k(   51) = (   0.5000000  -0.1000000   0.3000000), wk =   0.0320000
        k(   52) = (  -0.5000000   0.1000000   0.5000000), wk =   0.0320000
        k(   53) = (  -0.5000000   0.5000000   0.1000000), wk =   0.0320000
        k(   54) = (  -0.3000000  -0.3000000   0.3000000), wk =   0.0320000
        k(   55) = (  -0.3000000   0.3000000  -0.3000000), wk =   0.0320000
        k(   56) = (   0.3000000  -0.3000000  -0.3000000), wk =   0.0320000
        k(   57) = (  -0.3000000   0.3000000   0.5000000), wk =   0.0320000
        k(   58) = (  -0.5000000  -0.3000000   0.3000000), wk =   0.0320000
        k(   59) = (   0.5000000  -0.3000000  -0.3000000), wk =   0.0320000
        k(   60) = (  -0.3000000  -0.5000000   0.3000000), wk =   0.0320000
        k(   61) = (  -0.3000000   0.5000000  -0.3000000), wk =   0.0320000
        k(   62) = (  -0.5000000   0.3000000   0.5000000), wk =   0.0320000
        k(   63) = (  -0.5000000   0.5000000   0.3000000), wk =   0.0320000

     Dense  grid:     8217 G-vectors     FFT dimensions: (  25,  25,  25)

     Estimated max dynamical RAM per process >       7.58 MB

     Estimated total dynamical RAM >      30.33 MB

     Initial potential from superposition of free atoms

     starting charge   11.99084, renormalised to   12.00000
     Starting wfcs are   16 randomized atomic wfcs
     Checking if some PAW data can be deallocated... 

     total cpu time spent up to now is        0.8 secs

     Self-consistent Calculation

     iteration #  1     ecut=    37.00 Ry     beta= 0.10
     Davidson diagonalization with overlap
     ethr =  1.00E-02,  avg # of iterations =  3.1

     Threshold (ethr) on eigenvalues was too large:
     Diagonalizing with lowered threshold

     Davidson diagonalization with overlap
     ethr =  1.95E-04,  avg # of iterations =  3.6

     total cpu time spent up to now is        2.2 secs

     total energy              =    -158.00536446 Ry
     Harris-Foulkes estimate   =    -158.00617860 Ry
     estimated scf accuracy    <       0.02273277 Ry

     iteration #  2     ecut=    37.00 Ry     beta= 0.10
     Davidson diagonalization with overlap
     ethr =  1.89E-04,  avg # of iterations =  1.1

     total cpu time spent up to now is        2.7 secs

     total energy              =    -157.99939824 Ry
     Harris-Foulkes estimate   =    -158.00548827 Ry
     estimated scf accuracy    <       0.01959607 Ry

     iteration #  3     ecut=    37.00 Ry     beta= 0.10
     Davidson diagonalization with overlap
     ethr =  1.63E-04,  avg # of iterations =  1.0

     total cpu time spent up to now is        3.2 secs

     total energy              =    -157.99972665 Ry
     Harris-Foulkes estimate   =    -157.99977074 Ry
     estimated scf accuracy    <       0.00009162 Ry

     iteration #  4     ecut=    37.00 Ry     beta= 0.10
     Davidson diagonalization with overlap
     ethr =  7.64E-07,  avg # of iterations =  4.9

     total cpu time spent up to now is        4.1 secs

     total energy              =    -157.99978733 Ry
     Harris-Foulkes estimate   =    -157.99980134 Ry
     estimated scf accuracy    <       0.00005447 Ry

     iteration #  5     ecut=    37.00 Ry     beta= 0.10
     Davidson diagonalization with overlap
     ethr =  4.54E-07,  avg # of iterations =  1.0

     total cpu time spent up to now is        4.6 secs

     total energy              =    -157.99974412 Ry
     Harris-Foulkes estimate   =    -157.99978864 Ry
     estimated scf accuracy    <       0.00004111 Ry

     iteration #  6     ecut=    37.00 Ry     beta= 0.10
     Davidson diagonalization with overlap
     ethr =  3.43E-07,  avg # of iterations =  2.0

     total cpu time spent up to now is        5.2 secs

     End of self-consistent calculation

          k = 0.1000 0.1000 0.1000 (  1701 PWs)   bands (ev):

    -2.9615   4.0414   4.0437   4.0461   7.7413   7.7440   7.7466  10.7603
    10.7632  10.7662

          k = 0.1000 0.1000 0.3000 (  1708 PWs)   bands (ev):

    -2.2391   1.3156   4.7246   4.7279   8.0299   8.0359   8.5368   8.5374
    11.3564  11.7963

          k = 0.1000 0.1000-0.5000 (  1688 PWs)   bands (ev):

    -0.8087  -0.8018   5.9695   5.9702   6.2107   6.2116   9.5131   9.5135
    10.1741  10.1752

          k = 0.1000 0.3000 0.3000 (  1695 PWs)   bands (ev):

    -1.5203   2.0151   2.0182   5.3103   5.5761   8.7946   8.7988   9.1501
    12.1856  12.1920

          k = 0.1000 0.3000-0.5000 (  1688 PWs)   bands (ev):

    -0.0970  -0.0901   3.4039   3.4109   6.7765   6.7841  10.1398  10.1478
    10.4849  10.4914

          k = 0.1000-0.5000-0.5000 (  1688 PWs)   bands (ev):

     1.3153   1.3158   1.3223   1.3235   8.1280   8.1286   8.1359   8.1373
    11.8281  11.8325

          k = 0.3000 0.3000 0.3000 (  1688 PWs)   bands (ev):

    -0.8050   2.7113   2.7138   2.7163   6.1652   6.1679   6.1705   9.5502
    13.0701  13.0727

          k = 0.3000 0.3000-0.5000 (  1690 PWs)   bands (ev):

     0.6113   0.6183   3.9824   3.9831   4.2314   4.2323   7.5262   7.5336
    14.5689  14.5701

          k = 0.3000-0.5000-0.5000 (  1700 PWs)   bands (ev):

     2.0166   2.0170   2.0236   2.0248   5.4858   5.4863   5.4931   5.4943
    15.6231  15.6260

          k =-0.5000-0.5000-0.5000 (  1640 PWs)   bands (ev):

     3.3109   3.3111   3.3113   3.3119   3.5277   3.5288   3.5290   3.5294
    19.3111  19.3116

          k =-0.1000-0.1000 0.1000 (  1701 PWs)   bands (ev):

    -2.9615   4.0418   4.0438   4.0456   7.7418   7.7440   7.7460  10.7608
    10.7633  10.7656

          k =-0.1000 0.1000-0.1000 (  1701 PWs)   bands (ev):

    -2.9615   4.0424   4.0437   4.0451   7.7425   7.7439   7.7455  10.7615
    10.7632  10.7649

          k = 0.1000-0.1000-0.1000 (  1701 PWs)   bands (ev):

    -2.9615   4.0420   4.0437   4.0454   7.7421   7.7440   7.7458  10.7611
    10.7632  10.7653

          k =-0.1000-0.1000 0.3000 (  1708 PWs)   bands (ev):

    -2.2391   1.3156   4.7246   4.7279   8.0299   8.0359   8.5368   8.5374
    11.3564  11.7963

          k =-0.1000 0.1000-0.3000 (  1708 PWs)   bands (ev):

    -2.2391   1.3156   4.7255   4.7270   8.0315   8.0343   8.5369   8.5372
    11.3564  11.7972

          k = 0.1000-0.1000-0.3000 (  1708 PWs)   bands (ev):

    -2.2391   1.3156   4.7255   4.7270   8.0315   8.0343   8.5370   8.5372
    11.3564  11.7962

          k = 0.3000-0.1000 0.1000 (  1708 PWs)   bands (ev):

    -2.2391   1.3156   4.7255   4.7271   8.0315   8.0343   8.5369   8.5373
    11.3564  11.7963

          k =-0.3000-0.1000-0.1000 (  1708 PWs)   bands (ev):

    -2.2391   1.3156   4.7248   4.7277   8.0303   8.0355   8.5368   8.5374
    11.3564  11.7960

          k = 0.3000 0.1000-0.1000 (  1708 PWs)   bands (ev):

    -2.2391   1.3156   4.7255   4.7271   8.0315   8.0343   8.5369   8.5373
    11.3564  11.7965

          k =-0.3000 0.1000 0.1000 (  1708 PWs)   bands (ev):

    -2.2391   1.3156   4.7248   4.7277   8.0303   8.0355   8.5368   8.5374
    11.3564  11.7964

          k =-0.1000 0.3000 0.1000 (  1708 PWs)   bands (ev):

    -2.2391   1.3156   4.7260   4.7265   8.0324   8.0333   8.5370   8.5372
    11.3564  11.7959

          k =-0.1000-0.3000-0.1000 (  1708 PWs)   bands (ev):

    -2.2391   1.3156   4.7255   4.7270   8.0315   8.0343   8.5371   8.5371
    11.3564  11.7959

          k = 0.1000 0.3000-0.1000 (  1708 PWs)   bands (ev):

    -2.2391   1.3156   4.7260   4.7265   8.0324   8.0333   8.5370   8.5372
    11.3564  11.7956

          k = 0.1000-0.3000 0.1000 (  1708 PWs)   bands (ev):

    -2.2391   1.3156   4.7255   4.7270   8.0315   8.0343   8.5371   8.5371
    11.3564  11.7958

          k =-0.1000 0.1000 0.5000 (  1688 PWs)   bands (ev):

    -0.8087  -0.8018   5.9696   5.9702   6.2106   6.2116   9.5131   9.5135
    10.1741  10.1752

          k =-0.5000-0.1000 0.1000 (  1688 PWs)   bands (ev):

    -0.8057  -0.8048   5.9697   5.9702   6.2107   6.2115   9.5132   9.5135
    10.1742  10.1751

          k = 0.5000-0.1000-0.1000 (  1688 PWs)   bands (ev):

    -0.8057  -0.8048   5.9697   5.9702   6.2107   6.2115   9.5132   9.5135
    10.1742  10.1751

          k =-0.1000-0.5000 0.1000 (  1688 PWs)   bands (ev):

    -0.8055  -0.8050   5.9698   5.9700   6.2109   6.2113   9.5133   9.5134
    10.1744  10.1748

          k =-0.1000 0.5000-0.1000 (  1688 PWs)   bands (ev):

    -0.8055  -0.8050   5.9698   5.9701   6.2109   6.2112   9.5132   9.5134
    10.1744  10.1748

          k =-0.1000-0.3000 0.3000 (  1695 PWs)   bands (ev):

    -1.5203   2.0158   2.0175   5.3103   5.5761   8.7955   8.7979   9.1501
    12.1864  12.1908

          k =-0.1000 0.3000-0.3000 (  1695 PWs)   bands (ev):

    -1.5203   2.0158   2.0175   5.3103   5.5761   8.7955   8.7979   9.1501
    12.1870  12.1908

          k = 0.1000-0.3000-0.3000 (  1695 PWs)   bands (ev):

    -1.5203   2.0151   2.0182   5.3103   5.5761   8.7946   8.7988   9.1501
    12.1853  12.1922

          k = 0.3000 0.1000-0.3000 (  1695 PWs)   bands (ev):

    -1.5203   2.0164   2.0169   5.3103   5.5761   8.7963   8.7971   9.1501
    12.1874  12.1890

          k =-0.3000-0.1000-0.3000 (  1695 PWs)   bands (ev):

    -1.5203   2.0159   2.0174   5.3103   5.5761   8.7956   8.7978   9.1502
    12.1872  12.1908

          k = 0.3000-0.1000 0.3000 (  1695 PWs)   bands (ev):

    -1.5203   2.0159   2.0174   5.3103   5.5761   8.7956   8.7978   9.1501
    12.1866  12.1907

          k =-0.3000 0.1000 0.3000 (  1695 PWs)   bands (ev):

    -1.5203   2.0164   2.0169   5.3103   5.5761   8.7963   8.7971   9.1502
    12.1883  12.1894

          k = 0.3000-0.3000 0.1000 (  1695 PWs)   bands (ev):

    -1.5203   2.0158   2.0174   5.3103   5.5761   8.7956   8.7979   9.1501
    12.1869  12.1906

          k =-0.3000-0.3000-0.1000 (  1695 PWs)   bands (ev):

    -1.5203   2.0149   2.0184   5.3103   5.5761   8.7942   8.7992   9.1501
    12.1853  12.1926

          k = 0.3000 0.3000-0.1000 (  1695 PWs)   bands (ev):

    -1.5203   2.0149   2.0184   5.3103   5.5761   8.7942   8.7992   9.1501
    12.1851  12.1926

          k =-0.3000 0.3000 0.1000 (  1695 PWs)   bands (ev):

    -1.5203   2.0158   2.0174   5.3103   5.5761   8.7955   8.7978   9.1501
    12.1872  12.1906

          k =-0.1000 0.3000 0.5000 (  1688 PWs)   bands (ev):

    -0.0970  -0.0901   3.4039   3.4109   6.7765   6.7841  10.1398  10.1478
    10.4849  10.4914

          k = 0.3000 0.1000 0.5000 (  1688 PWs)   bands (ev):

    -0.0970  -0.0901   3.4039   3.4109   6.7765   6.7841  10.1398  10.1478
    10.4849  10.4914

          k = 0.3000-0.1000-0.5000 (  1688 PWs)   bands (ev):

    -0.0970  -0.0901   3.4039   3.4109   6.7765   6.7841  10.1398  10.1478
    10.4849  10.4915

          k =-0.5000-0.3000 0.1000 (  1688 PWs)   bands (ev):

    -0.0940  -0.0931   3.4069   3.4079   6.7798   6.7808  10.1433  10.1444
    10.4877  10.4886

          k = 0.5000-0.3000-0.1000 (  1688 PWs)   bands (ev):

    -0.0940  -0.0931   3.4069   3.4079   6.7798   6.7808  10.1433  10.1443
    10.4877  10.4886

          k =-0.1000-0.5000 0.3000 (  1688 PWs)   bands (ev):

    -0.0938  -0.0933   3.4072   3.4076   6.7800   6.7805  10.1436  10.1441
    10.4879  10.4884

          k =-0.1000 0.5000-0.3000 (  1688 PWs)   bands (ev):

    -0.0938  -0.0933   3.4072   3.4076   6.7800   6.7805  10.1436  10.1441
    10.4879  10.4884

          k = 0.3000-0.5000 0.1000 (  1688 PWs)   bands (ev):

    -0.0938  -0.0933   3.4072   3.4076   6.7800   6.7805  10.1436  10.1441
    10.4879  10.4884

          k = 0.3000 0.5000-0.1000 (  1688 PWs)   bands (ev):

    -0.0938  -0.0933   3.4072   3.4076   6.7800   6.7805  10.1435  10.1441
    10.4879  10.4884

          k =-0.5000 0.1000 0.3000 (  1688 PWs)   bands (ev):

    -0.0940  -0.0931   3.4069   3.4079   6.7798   6.7808  10.1433  10.1443
    10.4877  10.4886

          k = 0.5000-0.1000 0.3000 (  1688 PWs)   bands (ev):

    -0.0940  -0.0931   3.4069   3.4079   6.7798   6.7808  10.1433  10.1444
    10.4877  10.4886

          k =-0.5000 0.1000 0.5000 (  1688 PWs)   bands (ev):

     1.3154   1.3160   1.3221   1.3234   8.1282   8.1289   8.1355   8.1372
    11.8265  11.8332

          k =-0.5000 0.5000 0.1000 (  1688 PWs)   bands (ev):

     1.3173   1.3184   1.3199   1.3212   8.1299   8.1313   8.1334   8.1350
    11.8296  11.8310

          k =-0.3000-0.3000 0.3000 (  1688 PWs)   bands (ev):

    -0.8050   2.7118   2.7138   2.7158   6.1657   6.1679   6.1700   9.5502
    13.0716  13.0733

          k =-0.3000 0.3000-0.3000 (  1688 PWs)   bands (ev):

    -0.8050   2.7124   2.7138   2.7152   6.1663   6.1678   6.1694   9.5502
    13.0707  13.0733

          k = 0.3000-0.3000-0.3000 (  1688 PWs)   bands (ev):

    -0.8050   2.7120   2.7138   2.7156   6.1659   6.1679   6.1697   9.5502
    13.0699  13.0737

          k =-0.3000 0.3000 0.5000 (  1690 PWs)   bands (ev):

     0.6113   0.6183   3.9825   3.9830   4.2314   4.2324   7.5262   7.5336
    14.5687  14.5699

          k =-0.5000-0.3000 0.3000 (  1690 PWs)   bands (ev):

     0.6143   0.6153   3.9826   3.9830   4.2314   4.2322   7.5294   7.5304
    14.1700  14.5700

          k = 0.5000-0.3000-0.3000 (  1690 PWs)   bands (ev):

     0.6143   0.6153   3.9826   3.9830   4.2314   4.2322   7.5294   7.5304
    14.1699  14.1701

          k =-0.3000-0.5000 0.3000 (  1690 PWs)   bands (ev):

     0.6145   0.6150   3.9827   3.9829   4.2316   4.2320   7.5297   7.5302
    14.1699  14.1700

          k =-0.3000 0.5000-0.3000 (  1690 PWs)   bands (ev):

     0.6145   0.6150   3.9827   3.9830   4.2317   4.2320   7.5297   7.5302
    14.1700  14.5697

          k =-0.5000 0.3000 0.5000 (  1700 PWs)   bands (ev):

     2.0166   2.0173   2.0233   2.0247   5.4859   5.4866   5.4928   5.4943
    15.6213  15.6249

          k =-0.5000 0.5000 0.3000 (  1700 PWs)   bands (ev):

     2.0186   2.0197   2.0212   2.0225   5.4879   5.4890   5.4907   5.4920
    15.6236  15.6249

     the Fermi energy is     8.0542 ev

!    total energy              =    -157.99975381 Ry
     Harris-Foulkes estimate   =    -157.99975401 Ry
     estimated scf accuracy    <       0.00000095 Ry

     total all-electron energy =     -1942.570876 Ry

     The total energy is the sum of the following terms:

     one-electron contribution =      12.66571816 Ry
     hartree contribution      =       0.02379012 Ry
     xc contribution           =     -10.36287188 Ry
     ewald contribution        =     -21.61650270 Ry
     one-center paw contrib.   =    -138.70807188 Ry
     smearing contrib. (-TS)   =      -0.00181564 Ry

     convergence has been achieved in   6 iterations

     Forces acting on atoms (cartesian axes, Ry/au):

     atom    1 type  1   force =     0.00005669   -0.00004701    0.00020355
     atom    2 type  1   force =    -0.00015273    0.00016303    0.00020502
     atom    3 type  1   force =     0.00003664    0.00005385   -0.00029983
     atom    4 type  1   force =     0.00005940   -0.00016988   -0.00010873

     Total force =     0.000526     Total SCF correction =     0.000223
     SCF correction compared to forces is large: reduce conv_thr to get better values


     Computing stress (Cartesian axis) and pressure

          total   stress  (Ry/bohr**3)                   (kbar)     P=   -0.96
  -0.00000654   0.00000001   0.00000001         -0.96      0.00      0.00
   0.00000001  -0.00000652   0.00000000          0.00     -0.96      0.00
   0.00000001   0.00000000  -0.00000654          0.00      0.00     -0.96


     Writing output data file fe_scf_fcc_2.save/

     init_run     :      0.38s CPU      0.41s WALL (       1 calls)
     electrons    :      4.17s CPU      4.38s WALL (       1 calls)
     forces       :      0.10s CPU      0.10s WALL (       1 calls)
     stress       :      0.19s CPU      0.19s WALL (       1 calls)

     Called by init_run:
     wfcinit      :      0.28s CPU      0.31s WALL (       1 calls)
     potinit      :      0.05s CPU      0.05s WALL (       1 calls)
     hinit0       :      0.05s CPU      0.05s WALL (       1 calls)

     Called by electrons:
     c_bands      :      3.46s CPU      3.63s WALL (       7 calls)
     sum_band     :      0.44s CPU      0.48s WALL (       7 calls)
     v_of_rho     :      0.02s CPU      0.02s WALL (       7 calls)
     newd         :      0.01s CPU      0.01s WALL (       7 calls)
     PAW_pot      :      0.28s CPU      0.29s WALL (       7 calls)
     mix_rho      :      0.00s CPU      0.00s WALL (       7 calls)

     Called by c_bands:
     init_us_2    :      0.09s CPU      0.09s WALL (    1071 calls)
     cegterg      :      3.29s CPU      3.46s WALL (     441 calls)

     Called by sum_band:
     sum_band:bec :      0.00s CPU      0.00s WALL (     441 calls)
     addusdens    :      0.01s CPU      0.01s WALL (       7 calls)

     Called by *egterg:
     h_psi        :      2.29s CPU      2.42s WALL (    1556 calls)
     s_psi        :      0.21s CPU      0.22s WALL (    1556 calls)
     g_psi        :      0.01s CPU      0.01s WALL (    1052 calls)
     cdiaghg      :      0.24s CPU      0.25s WALL (    1430 calls)

     Called by h_psi:
     h_psi:pot    :      2.28s CPU      2.42s WALL (    1556 calls)
     h_psi:calbec :      0.35s CPU      0.38s WALL (    1556 calls)
     vloc_psi     :      1.71s CPU      1.81s WALL (    1556 calls)
     add_vuspsi   :      0.21s CPU      0.22s WALL (    1556 calls)

     General routines
     calbec       :      0.58s CPU      0.62s WALL (    2312 calls)
     fft          :      0.01s CPU      0.01s WALL (     103 calls)
     ffts         :      0.00s CPU      0.00s WALL (       7 calls)
     fftw         :      1.85s CPU      1.96s WALL (   29402 calls)

     Parallel routines
     fft_scatt_xy :      0.19s CPU      0.20s WALL (   29512 calls)
     fft_scatt_yz :      1.01s CPU      1.08s WALL (   29512 calls)

     PWSCF        :      5.28s CPU      5.55s WALL


   This run was terminated on:   6:21: 5  11Mar2020            

=------------------------------------------------------------------------------=
   JOB DONE.
=------------------------------------------------------------------------------=
