
     Program PWSCF v.6.3 starts on 30Oct2019 at  0:47:37 

     This program is part of the open-source Quantum ESPRESSO suite
     for quantum simulation of materials; please cite
         "P. Giannozzi et al., J. Phys.:Condens. Matter 21 395502 (2009);
         "P. Giannozzi et al., J. Phys.:Condens. Matter 29 465901 (2017);
          URL http://www.quantum-espresso.org", 
     in publications or presentations arising from this work. More details at
     http://www.quantum-espresso.org/quote

     Parallel version (MPI), running on     1 processors

     MPI processes distributed on     1 nodes
     Reading input from /cloud/Code/python/py_pwscf_converge/src/example2/wd/runpwscf/file_10286.in
Warning: card &IONS ignored
Warning: card ION_DYNAMICS = 'BFGS', ignored
Warning: card / ignored
Warning: card &CELL ignored
Warning: card CELL_DYNAMICS = 'BFGS', ignored
Warning: card CELL_FACTOR = 2.0, ignored
Warning: card PRESS = 0.0, ignored
Warning: card / ignored

     Current dimensions of program PWSCF are:
     Max number of different atomic species (ntypx) = 10
     Max number of k-points (npk) =  40000
     Max angular momentum in pseudopotentials (lmaxx) =  3
               file Al.pbe-nl-kjpaw_psl.1.0.0.UPF: wavefunction(s)  3S 3P renormalized

     Subspace diagonalization in iterative solution of the eigenvalue problem:
     a serial algorithm will be used


     G-vector sticks info
     --------------------
     sticks:   dense  smooth     PW     G-vecs:    dense   smooth      PW
     Sum         121     121     81                  949      949     515



     bravais-lattice index     =            0
     lattice parameter (alat)  =       4.0400  a.u.
     unit-cell volume          =      65.9393 (a.u.)^3
     number of atoms/cell      =            4
     number of atomic types    =            1
     number of electrons       =        12.00
     number of Kohn-Sham states=           10
     kinetic-energy cutoff     =      42.0000  Ry
     charge density cutoff     =      90.0000  Ry
     convergence threshold     =      1.0E-06
     mixing beta               =       0.1000
     number of iterations used =           10  TF        mixing
     Exchange-correlation      = SLA PW PBX PBC ( 1  4  3  4 0 0)

     celldm(1)=   4.040000  celldm(2)=   0.000000  celldm(3)=   0.000000
     celldm(4)=   0.000000  celldm(5)=   0.000000  celldm(6)=   0.000000

     crystal axes: (cart. coord. in units of alat)
               a(1) = (   1.000000   0.000000   0.000000 )  
               a(2) = (   0.000000   1.000000   0.000000 )  
               a(3) = (   0.000000   0.000000   1.000000 )  

     reciprocal axes: (cart. coord. in units 2 pi/alat)
               b(1) = (  1.000000  0.000000  0.000000 )  
               b(2) = (  0.000000  1.000000  0.000000 )  
               b(3) = (  0.000000  0.000000  1.000000 )  


     PseudoPot. # 1 for Al read from file:
     /opt/pp/Al.pbe-nl-kjpaw_psl.1.0.0.UPF
     MD5 check sum: 1b67f78b73fe58c7924490f171ce8a1e
     Pseudo is Projector augmented-wave + core cor, Zval =  3.0
     Generated using "atomic" code by A. Dal Corso v.6.3
     Shape of augmentation charge: PSQ
     Using radial grid of 1135 points,  4 beta functions with: 
                l(1) =   0
                l(2) =   0
                l(3) =   1
                l(4) =   1
     Q(r) pseudized with 0 coefficients 


     atomic species   valence    mass     pseudopotential
        Al             3.00    26.98200     Al( 1.00)

     No symmetry found



   Cartesian axes

     site n.     atom                  positions (alat units)
         1           Al  tau(   1) = (  -0.0001235   0.0000359   0.0002572  )
         2           Al  tau(   2) = (   0.5003009   0.4992819   0.0002658  )
         3           Al  tau(   3) = (   0.4996490   0.0001153   0.5011170  )
         4           Al  tau(   4) = (  -0.0000756   0.5008267   0.5006943  )

     number of k points=   172  Marzari-Vanderbilt smearing, width (Ry)=  0.0500

     Number of k-points >= 100: set verbosity='high' to print them.

     Dense  grid:      949 G-vectors     FFT dimensions: (  15,  15,  15)

     Estimated max dynamical RAM per process >       9.75 MB

     Initial potential from superposition of free atoms

     starting charge   11.99084, renormalised to   12.00000
     Starting wfcs are   16 randomized atomic wfcs
     Checking if some PAW data can be deallocated... 

     total cpu time spent up to now is        1.3 secs

     Self-consistent Calculation

     iteration #  1     ecut=    42.00 Ry     beta= 0.10
     Davidson diagonalization with overlap
     ethr =  1.00E-02,  avg # of iterations =  4.9

     total cpu time spent up to now is        2.7 secs

     total energy              =    -141.66063378 Ry
     Harris-Foulkes estimate   =    -141.81484347 Ry
     estimated scf accuracy    <       0.18300178 Ry

     iteration #  2     ecut=    42.00 Ry     beta= 0.10
     Davidson diagonalization with overlap
     ethr =  1.53E-03,  avg # of iterations =  1.1

     total cpu time spent up to now is        3.5 secs

     total energy              =    -141.17246502 Ry
     Harris-Foulkes estimate   =    -141.66416019 Ry
     estimated scf accuracy    <       0.15353458 Ry

     iteration #  3     ecut=    42.00 Ry     beta= 0.10
     Davidson diagonalization with overlap
     ethr =  1.28E-03,  avg # of iterations =  2.1

     total cpu time spent up to now is        4.5 secs

     total energy              =    -141.24717467 Ry
     Harris-Foulkes estimate   =    -141.25457423 Ry
     estimated scf accuracy    <       0.01557266 Ry

     iteration #  4     ecut=    42.00 Ry     beta= 0.10
     Davidson diagonalization with overlap
     ethr =  1.30E-04,  avg # of iterations =  1.2

     total cpu time spent up to now is        5.3 secs

     total energy              =    -141.25011199 Ry
     Harris-Foulkes estimate   =    -141.24764247 Ry
     estimated scf accuracy    <       0.01201049 Ry

     iteration #  5     ecut=    42.00 Ry     beta= 0.10
     Davidson diagonalization with overlap
     ethr =  1.00E-04,  avg # of iterations =  2.0

     total cpu time spent up to now is        6.1 secs

     total energy              =    -141.25189616 Ry
     Harris-Foulkes estimate   =    -141.25151412 Ry
     estimated scf accuracy    <       0.00057032 Ry

     iteration #  6     ecut=    42.00 Ry     beta= 0.10
     Davidson diagonalization with overlap
     ethr =  4.75E-06,  avg # of iterations =  2.8

     total cpu time spent up to now is        7.1 secs

     total energy              =    -141.25157489 Ry
     Harris-Foulkes estimate   =    -141.25200534 Ry
     estimated scf accuracy    <       0.00020906 Ry

     iteration #  7     ecut=    42.00 Ry     beta= 0.10
     Davidson diagonalization with overlap
     ethr =  1.74E-06,  avg # of iterations =  2.0

     total cpu time spent up to now is        8.0 secs

     total energy              =    -141.25153473 Ry
     Harris-Foulkes estimate   =    -141.25159582 Ry
     estimated scf accuracy    <       0.00033908 Ry

     iteration #  8     ecut=    42.00 Ry     beta= 0.10
     Davidson diagonalization with overlap
     ethr =  1.74E-06,  avg # of iterations =  1.0

     total cpu time spent up to now is        8.7 secs

     total energy              =    -141.25154110 Ry
     Harris-Foulkes estimate   =    -141.25154290 Ry
     estimated scf accuracy    <       0.00001755 Ry

     iteration #  9     ecut=    42.00 Ry     beta= 0.10
     Davidson diagonalization with overlap
     ethr =  1.46E-07,  avg # of iterations =  1.4

     total cpu time spent up to now is        9.6 secs

     total energy              =    -141.25154098 Ry
     Harris-Foulkes estimate   =    -141.25154208 Ry
     estimated scf accuracy    <       0.00001901 Ry

     iteration # 10     ecut=    42.00 Ry     beta= 0.10
     Davidson diagonalization with overlap
     ethr =  1.46E-07,  avg # of iterations =  1.0

     total cpu time spent up to now is       10.3 secs

     total energy              =    -141.25152996 Ry
     Harris-Foulkes estimate   =    -141.25154119 Ry
     estimated scf accuracy    <       0.00002004 Ry

     iteration # 11     ecut=    42.00 Ry     beta= 0.10
     Davidson diagonalization with overlap
     ethr =  1.46E-07,  avg # of iterations =  1.0

     total cpu time spent up to now is       11.1 secs

     total energy              =    -141.25152592 Ry
     Harris-Foulkes estimate   =    -141.25153041 Ry
     estimated scf accuracy    <       0.00002077 Ry

     iteration # 12     ecut=    42.00 Ry     beta= 0.10
     Davidson diagonalization with overlap
     ethr =  1.46E-07,  avg # of iterations =  2.0

     total cpu time spent up to now is       12.0 secs

     total energy              =    -141.25152527 Ry
     Harris-Foulkes estimate   =    -141.25152977 Ry
     estimated scf accuracy    <       0.00000183 Ry

     iteration # 13     ecut=    42.00 Ry     beta= 0.10
     Davidson diagonalization with overlap
     ethr =  1.52E-08,  avg # of iterations =  2.0

     total cpu time spent up to now is       12.9 secs

     total energy              =    -141.25152533 Ry
     Harris-Foulkes estimate   =    -141.25152555 Ry
     estimated scf accuracy    <       0.00000293 Ry

     iteration # 14     ecut=    42.00 Ry     beta= 0.10
     Davidson diagonalization with overlap
     ethr =  1.52E-08,  avg # of iterations =  1.7

     total cpu time spent up to now is       13.7 secs

     End of self-consistent calculation

     Number of k-points >= 100: set verbosity='high' to print the bands.

     the Fermi energy is    52.8044 ev

!    total energy              =    -141.25152278 Ry
     Harris-Foulkes estimate   =    -141.25152559 Ry
     estimated scf accuracy    <       0.00000089 Ry

     total all-electron energy =     -1925.822645 Ry

     The total energy is the sum of the following terms:

     one-electron contribution =      58.66517729 Ry
     hartree contribution      =       0.21795578 Ry
     xc contribution           =     -17.28777001 Ry
     ewald contribution        =     -40.85514773 Ry
     one-center paw contrib.   =    -141.98827690 Ry
     smearing contrib. (-TS)   =      -0.00346121 Ry

     convergence has been achieved in  14 iterations

     Forces acting on atoms (cartesian axes, Ry/au):

     atom    1 type  1   force =     0.00206935   -0.00033906    0.01644631
     atom    2 type  1   force =    -0.00435703    0.00629598    0.01638414
     atom    3 type  1   force =     0.00055216   -0.00075532   -0.01805091
     atom    4 type  1   force =     0.00173552   -0.00520159   -0.01477954

     Total force =     0.034310     Total SCF correction =     0.000093


     Computing stress (Cartesian axis) and pressure

          total   stress  (Ry/bohr**3)                   (kbar)     P=59701.18
   0.40584457   0.00000093   0.00000069      59701.79      0.14      0.10
   0.00000093   0.40583696  -0.00000149          0.14  59700.67     -0.22
   0.00000069  -0.00000149   0.40583972          0.10     -0.22  59701.07


     Writing output data file fe_scf_fcc_2.save/

     init_run     :      0.79s CPU      0.83s WALL (       1 calls)
     electrons    :     12.13s CPU     12.44s WALL (       1 calls)
     forces       :      0.09s CPU      0.09s WALL (       1 calls)
     stress       :      0.35s CPU      0.35s WALL (       1 calls)

     Called by init_run:
     wfcinit      :      0.38s CPU      0.40s WALL (       1 calls)
     potinit      :      0.22s CPU      0.25s WALL (       1 calls)
     hinit0       :      0.18s CPU      0.18s WALL (       1 calls)

     Called by electrons:
     c_bands      :      7.52s CPU      7.71s WALL (      14 calls)
     sum_band     :      1.25s CPU      1.27s WALL (      14 calls)
     v_of_rho     :      0.02s CPU      0.03s WALL (      15 calls)
     newd         :      0.02s CPU      0.02s WALL (      15 calls)
     PAW_pot      :      3.52s CPU      3.64s WALL (      15 calls)
     mix_rho      :      0.00s CPU      0.00s WALL (      14 calls)

     Called by c_bands:
     init_us_2    :      0.51s CPU      0.53s WALL (    5332 calls)
     cegterg      :      6.78s CPU      6.90s WALL (    2408 calls)

     Called by sum_band:
     sum_band:bec :      0.03s CPU      0.02s WALL (    2408 calls)
     addusdens    :      0.01s CPU      0.02s WALL (      14 calls)

     Called by *egterg:
     h_psi        :      4.65s CPU      4.61s WALL (    7075 calls)
     s_psi        :      0.40s CPU      0.43s WALL (    7075 calls)
     g_psi        :      0.08s CPU      0.07s WALL (    4495 calls)
     cdiaghg      :      0.90s CPU      1.01s WALL (    6903 calls)

     Called by h_psi:
     h_psi:pot    :      4.60s CPU      4.57s WALL (    7075 calls)
     h_psi:calbec :      0.44s CPU      0.42s WALL (    7075 calls)
     vloc_psi     :      3.71s CPU      3.68s WALL (    7075 calls)
     add_vuspsi   :      0.42s CPU      0.45s WALL (    7075 calls)

     General routines
     calbec       :      0.73s CPU      0.63s WALL (   10343 calls)
     fft          :      0.01s CPU      0.01s WALL (     191 calls)
     ffts         :      0.00s CPU      0.00s WALL (      14 calls)
     fftw         :      3.67s CPU      3.71s WALL (  140766 calls)

     Parallel routines

     PWSCF        :    13.82s CPU        14.21s WALL


   This run was terminated on:   0:47:51  30Oct2019            

=------------------------------------------------------------------------------=
   JOB DONE.
=------------------------------------------------------------------------------=
