
     Program PWSCF v.6.3 starts on 24Oct2019 at  1:26:40 

     This program is part of the open-source Quantum ESPRESSO suite
     for quantum simulation of materials; please cite
         "P. Giannozzi et al., J. Phys.:Condens. Matter 21 395502 (2009);
         "P. Giannozzi et al., J. Phys.:Condens. Matter 29 465901 (2017);
          URL http://www.quantum-espresso.org", 
     in publications or presentations arising from this work. More details at
     http://www.quantum-espresso.org/quote

     Parallel version (MPI & OpenMP), running on      20 processor cores
     Number of MPI processes:                20
     Threads/MPI process:                     1

     MPI processes distributed on     1 nodes
     R & G space division:  proc/nbgrp/npool/nimage =      20
     Reading input from /rds/homes/b/bxp912/jobs/20191024_test1/wd/runpwscf/file_10241.in
Warning: card &IONS ignored
Warning: card ION_DYNAMICS = 'BFGS', ignored
Warning: card / ignored
Warning: card &CELL ignored
Warning: card CELL_DYNAMICS = 'BFGS', ignored
Warning: card CELL_FACTOR = 2.0, ignored
Warning: card PRESS = 0.0, ignored
Warning: card / ignored

     Current dimensions of program PWSCF are:
     Max number of different atomic species (ntypx) = 10
     Max number of k-points (npk) =  40000
     Max angular momentum in pseudopotentials (lmaxx) =  3
     Message from routine read_upf::
     Pseudo file /rds/homes/b/bxp912/pp/Al.pbe-nl-kjpaw_psl.1.0.0.UPF has been successfully fixed on the fly.
To avoid this message in the future you can permanently fix 
 your pseudo files following instructions given in: 
https://gitlab.com/QEF/q-e/blob/master/upftools/how_to_fix_upf.md
               file Al.pbe-nl-kjpaw_psl.1.0.0.UPF: wavefunction(s)  3S 3P renormalized

     Subspace diagonalization in iterative solution of the eigenvalue problem:
     a serial algorithm will be used

 
     Parallelization info
     --------------------
     sticks:   dense  smooth     PW     G-vecs:    dense   smooth      PW
     Min          52      52     20                 1262     1262     300
     Max          53      53     21                 1265     1265     303
     Sum        1041    1041    401                25269    25269    6031
 


     bravais-lattice index     =            0
     lattice parameter (alat)  =       8.0800  a.u.
     unit-cell volume          =     527.5141 (a.u.)^3
     number of atoms/cell      =           32
     number of atomic types    =            1
     number of electrons       =        96.00
     number of Kohn-Sham states=           58
     kinetic-energy cutoff     =      66.0000  Ry
     charge density cutoff     =     200.0000  Ry
     convergence threshold     =      1.0E-06
     mixing beta               =       0.1000
     number of iterations used =           10  TF        mixing
     Exchange-correlation      = SLA PW PBX PBC ( 1  4  3  4 0 0)

     celldm(1)=   8.080000  celldm(2)=   0.000000  celldm(3)=   0.000000
     celldm(4)=   0.000000  celldm(5)=   0.000000  celldm(6)=   0.000000

     crystal axes: (cart. coord. in units of alat)
               a(1) = (   1.000000   0.000000   0.000000 )  
               a(2) = (   0.000000   1.000000   0.000000 )  
               a(3) = (   0.000000   0.000000   1.000000 )  

     reciprocal axes: (cart. coord. in units 2 pi/alat)
               b(1) = (  1.000000  0.000000  0.000000 )  
               b(2) = (  0.000000  1.000000  0.000000 )  
               b(3) = (  0.000000  0.000000  1.000000 )  


     PseudoPot. # 1 for Al read from file:
     /rds/homes/b/bxp912/pp/Al.pbe-nl-kjpaw_psl.1.0.0.UPF
     MD5 check sum: 339dbea23cf3ab9a065ad45c0f9085d7
     Pseudo is Projector augmented-wave + core cor, Zval =  3.0
     Generated using "atomic" code by A. Dal Corso v.5.1
     Shape of augmentation charge: PSQ
     Using radial grid of 1135 points,  4 beta functions with: 
                l(1) =   0
                l(2) =   0
                l(3) =   1
                l(4) =   1
     Q(r) pseudized with 0 coefficients 


     atomic species   valence    mass     pseudopotential
        Al             3.00    26.98200     Al( 1.00)

     No symmetry found



   Cartesian axes

     site n.     atom                  positions (alat units)
         1           Al  tau(   1) = (  -0.0000618   0.0000180   0.0001286  )
         2           Al  tau(   2) = (   0.2501504   0.2496409   0.0001329  )
         3           Al  tau(   3) = (   0.2498245   0.0000576   0.2505585  )
         4           Al  tau(   4) = (  -0.0000378   0.2504134   0.2503472  )
         5           Al  tau(   5) = (   0.0004835   0.0004765   0.4997751  )
         6           Al  tau(   6) = (   0.2502257   0.2496836   0.5000068  )
         7           Al  tau(   7) = (   0.2500525   0.0002908   0.7497884  )
         8           Al  tau(   8) = (   0.0001038   0.2502148   0.7503971  )
         9           Al  tau(   9) = (   0.0004488   0.5002037  -0.0000292  )
        10           Al  tau(  10) = (   0.2502638   0.7503330   0.0007661  )
        11           Al  tau(  11) = (   0.2503574   0.5002057   0.2504745  )
        12           Al  tau(  12) = (   0.0000725   0.7500861   0.2500479  )
        13           Al  tau(  13) = (   0.0002082   0.5002952   0.5001871  )
        14           Al  tau(  14) = (   0.2499320   0.7501195   0.4997555  )
        15           Al  tau(  15) = (   0.2506361   0.4996019   0.7494255  )
        16           Al  tau(  16) = (  -0.0006199   0.7494434   0.7499870  )
        17           Al  tau(  17) = (   0.5003850  -0.0001898  -0.0000732  )
        18           Al  tau(  18) = (   0.7498343   0.2501778  -0.0004407  )
        19           Al  tau(  19) = (   0.7493109  -0.0001812   0.2501458  )
        20           Al  tau(  20) = (   0.4999530   0.2499270   0.2496819  )
        21           Al  tau(  21) = (   0.4998509   0.0005536   0.4999482  )
        22           Al  tau(  22) = (   0.7501292   0.2494251   0.4999098  )
        23           Al  tau(  23) = (   0.7500676  -0.0001298   0.7500485  )
        24           Al  tau(  24) = (   0.5000215   0.2497853   0.7499902  )
        25           Al  tau(  25) = (   0.4997214   0.5002185  -0.0004144  )
        26           Al  tau(  26) = (   0.7495697   0.7501849   0.0005172  )
        27           Al  tau(  27) = (   0.7501903   0.4996254   0.2498983  )
        28           Al  tau(  28) = (   0.5001659   0.7496046   0.2503955  )
        29           Al  tau(  29) = (   0.4993878   0.5001941   0.5000764  )
        30           Al  tau(  30) = (   0.7503133   0.7499759   0.4997253  )
        31           Al  tau(  31) = (   0.7499001   0.5000179   0.7502634  )
        32           Al  tau(  32) = (   0.5000268   0.7499029   0.7498445  )

     number of k points=    63  Marzari-Vanderbilt smearing, width (Ry)=  0.0020
                       cart. coord. in units 2pi/alat
        k(    1) = (   0.1000000   0.1000000   0.1000000), wk =   0.0320000
        k(    2) = (   0.1000000   0.1000000   0.3000000), wk =   0.0320000
        k(    3) = (   0.1000000   0.1000000  -0.5000000), wk =   0.0320000
        k(    4) = (   0.1000000   0.3000000   0.3000000), wk =   0.0320000
        k(    5) = (   0.1000000   0.3000000  -0.5000000), wk =   0.0320000
        k(    6) = (   0.1000000  -0.5000000  -0.5000000), wk =   0.0320000
        k(    7) = (   0.3000000   0.3000000   0.3000000), wk =   0.0320000
        k(    8) = (   0.3000000   0.3000000  -0.5000000), wk =   0.0320000
        k(    9) = (   0.3000000  -0.5000000  -0.5000000), wk =   0.0320000
        k(   10) = (  -0.5000000  -0.5000000  -0.5000000), wk =   0.0160000
        k(   11) = (  -0.1000000  -0.1000000   0.1000000), wk =   0.0320000
        k(   12) = (  -0.1000000   0.1000000  -0.1000000), wk =   0.0320000
        k(   13) = (   0.1000000  -0.1000000  -0.1000000), wk =   0.0320000
        k(   14) = (  -0.1000000  -0.1000000   0.3000000), wk =   0.0320000
        k(   15) = (  -0.1000000   0.1000000  -0.3000000), wk =   0.0320000
        k(   16) = (   0.1000000  -0.1000000  -0.3000000), wk =   0.0320000
        k(   17) = (   0.3000000  -0.1000000   0.1000000), wk =   0.0320000
        k(   18) = (  -0.3000000  -0.1000000  -0.1000000), wk =   0.0320000
        k(   19) = (   0.3000000   0.1000000  -0.1000000), wk =   0.0320000
        k(   20) = (  -0.3000000   0.1000000   0.1000000), wk =   0.0320000
        k(   21) = (  -0.1000000   0.3000000   0.1000000), wk =   0.0320000
        k(   22) = (  -0.1000000  -0.3000000  -0.1000000), wk =   0.0320000
        k(   23) = (   0.1000000   0.3000000  -0.1000000), wk =   0.0320000
        k(   24) = (   0.1000000  -0.3000000   0.1000000), wk =   0.0320000
        k(   25) = (  -0.1000000   0.1000000   0.5000000), wk =   0.0320000
        k(   26) = (  -0.5000000  -0.1000000   0.1000000), wk =   0.0320000
        k(   27) = (   0.5000000  -0.1000000  -0.1000000), wk =   0.0320000
        k(   28) = (  -0.1000000  -0.5000000   0.1000000), wk =   0.0320000
        k(   29) = (  -0.1000000   0.5000000  -0.1000000), wk =   0.0320000
        k(   30) = (  -0.1000000  -0.3000000   0.3000000), wk =   0.0320000
        k(   31) = (  -0.1000000   0.3000000  -0.3000000), wk =   0.0320000
        k(   32) = (   0.1000000  -0.3000000  -0.3000000), wk =   0.0320000
        k(   33) = (   0.3000000   0.1000000  -0.3000000), wk =   0.0320000
        k(   34) = (  -0.3000000  -0.1000000  -0.3000000), wk =   0.0320000
        k(   35) = (   0.3000000  -0.1000000   0.3000000), wk =   0.0320000
        k(   36) = (  -0.3000000   0.1000000   0.3000000), wk =   0.0320000
        k(   37) = (   0.3000000  -0.3000000   0.1000000), wk =   0.0320000
        k(   38) = (  -0.3000000  -0.3000000  -0.1000000), wk =   0.0320000
        k(   39) = (   0.3000000   0.3000000  -0.1000000), wk =   0.0320000
        k(   40) = (  -0.3000000   0.3000000   0.1000000), wk =   0.0320000
        k(   41) = (  -0.1000000   0.3000000   0.5000000), wk =   0.0320000
        k(   42) = (   0.3000000   0.1000000   0.5000000), wk =   0.0320000
        k(   43) = (   0.3000000  -0.1000000  -0.5000000), wk =   0.0320000
        k(   44) = (  -0.5000000  -0.3000000   0.1000000), wk =   0.0320000
        k(   45) = (   0.5000000  -0.3000000  -0.1000000), wk =   0.0320000
        k(   46) = (  -0.1000000  -0.5000000   0.3000000), wk =   0.0320000
        k(   47) = (  -0.1000000   0.5000000  -0.3000000), wk =   0.0320000
        k(   48) = (   0.3000000  -0.5000000   0.1000000), wk =   0.0320000
        k(   49) = (   0.3000000   0.5000000  -0.1000000), wk =   0.0320000
        k(   50) = (  -0.5000000   0.1000000   0.3000000), wk =   0.0320000
        k(   51) = (   0.5000000  -0.1000000   0.3000000), wk =   0.0320000
        k(   52) = (  -0.5000000   0.1000000   0.5000000), wk =   0.0320000
        k(   53) = (  -0.5000000   0.5000000   0.1000000), wk =   0.0320000
        k(   54) = (  -0.3000000  -0.3000000   0.3000000), wk =   0.0320000
        k(   55) = (  -0.3000000   0.3000000  -0.3000000), wk =   0.0320000
        k(   56) = (   0.3000000  -0.3000000  -0.3000000), wk =   0.0320000
        k(   57) = (  -0.3000000   0.3000000   0.5000000), wk =   0.0320000
        k(   58) = (  -0.5000000  -0.3000000   0.3000000), wk =   0.0320000
        k(   59) = (   0.5000000  -0.3000000  -0.3000000), wk =   0.0320000
        k(   60) = (  -0.3000000  -0.5000000   0.3000000), wk =   0.0320000
        k(   61) = (  -0.3000000   0.5000000  -0.3000000), wk =   0.0320000
        k(   62) = (  -0.5000000   0.3000000   0.5000000), wk =   0.0320000
        k(   63) = (  -0.5000000   0.5000000   0.3000000), wk =   0.0320000

     Dense  grid:    25269 G-vectors     FFT dimensions: (  40,  40,  40)

     Estimated max dynamical RAM per process >      20.87 MB

     Estimated total dynamical RAM >     417.35 MB

     Initial potential from superposition of free atoms

     starting charge   95.92671, renormalised to   96.00000
     Starting wfcs are  128 randomized atomic wfcs
     Checking if some PAW data can be deallocated... 

     total cpu time spent up to now is        3.1 secs

     Self-consistent Calculation

     iteration #  1     ecut=    66.00 Ry     beta= 0.10
     Davidson diagonalization with overlap
     ethr =  1.00E-02,  avg # of iterations =  5.0

     total cpu time spent up to now is        9.7 secs

     total energy              =   -1133.16244948 Ry
     Harris-Foulkes estimate   =   -1134.41116491 Ry
     estimated scf accuracy    <       1.41544944 Ry

     iteration #  2     ecut=    66.00 Ry     beta= 0.10
     Davidson diagonalization with overlap
     ethr =  1.47E-03,  avg # of iterations =  3.7

     total cpu time spent up to now is       13.5 secs

     total energy              =   -1129.63388894 Ry
     Harris-Foulkes estimate   =   -1133.29493883 Ry
     estimated scf accuracy    <       1.22853516 Ry

     iteration #  3     ecut=    66.00 Ry     beta= 0.10
     Davidson diagonalization with overlap
     ethr =  1.28E-03,  avg # of iterations =  3.9

     total cpu time spent up to now is       18.8 secs

     total energy              =   -1130.27098492 Ry
     Harris-Foulkes estimate   =   -1130.70633883 Ry
     estimated scf accuracy    <       0.21360499 Ry

     iteration #  4     ecut=    66.00 Ry     beta= 0.10
     Davidson diagonalization with overlap
     ethr =  2.23E-04,  avg # of iterations =  2.7

     total cpu time spent up to now is       22.1 secs

     total energy              =   -1130.02786870 Ry
     Harris-Foulkes estimate   =   -1130.28684712 Ry
     estimated scf accuracy    <       0.13848614 Ry

     iteration #  5     ecut=    66.00 Ry     beta= 0.10
     Davidson diagonalization with overlap
     ethr =  1.44E-04,  avg # of iterations =  2.4

     total cpu time spent up to now is       25.3 secs

     total energy              =   -1130.02614765 Ry
     Harris-Foulkes estimate   =   -1130.04231884 Ry
     estimated scf accuracy    <       0.02006970 Ry

     iteration #  6     ecut=    66.00 Ry     beta= 0.10
     Davidson diagonalization with overlap
     ethr =  2.09E-05,  avg # of iterations =  6.8

     total cpu time spent up to now is       33.1 secs

     total energy              =   -1130.03475546 Ry
     Harris-Foulkes estimate   =   -1130.03757852 Ry
     estimated scf accuracy    <       0.01494047 Ry

     iteration #  7     ecut=    66.00 Ry     beta= 0.10
     Davidson diagonalization with overlap
     c_bands:  1 eigenvalues not converged
     ethr =  1.56E-05,  avg # of iterations =  1.3

     total cpu time spent up to now is       35.7 secs

     total energy              =   -1130.02577364 Ry
     Harris-Foulkes estimate   =   -1130.03483925 Ry
     estimated scf accuracy    <       0.01630005 Ry

     iteration #  8     ecut=    66.00 Ry     beta= 0.10
     Davidson diagonalization with overlap
     ethr =  1.56E-05,  avg # of iterations =  1.1

     total cpu time spent up to now is       38.3 secs

     total energy              =   -1130.02771470 Ry
     Harris-Foulkes estimate   =   -1130.02717679 Ry
     estimated scf accuracy    <       0.00033679 Ry

     iteration #  9     ecut=    66.00 Ry     beta= 0.10
     Davidson diagonalization with overlap
     ethr =  3.51E-07,  avg # of iterations =  8.3

     total cpu time spent up to now is       47.0 secs

     total energy              =   -1130.04398352 Ry
     Harris-Foulkes estimate   =   -1130.04425911 Ry
     estimated scf accuracy    <       0.00031187 Ry

     iteration # 10     ecut=    66.00 Ry     beta= 0.10
     Davidson diagonalization with overlap
     ethr =  3.25E-07,  avg # of iterations =  1.0

     total cpu time spent up to now is       49.5 secs

     total energy              =   -1130.04191817 Ry
     Harris-Foulkes estimate   =   -1130.04398677 Ry
     estimated scf accuracy    <       0.00035330 Ry

     iteration # 11     ecut=    66.00 Ry     beta= 0.10
     Davidson diagonalization with overlap
     ethr =  3.25E-07,  avg # of iterations =  1.0

     total cpu time spent up to now is       52.0 secs

     total energy              =   -1130.04020191 Ry
     Harris-Foulkes estimate   =   -1130.04194671 Ry
     estimated scf accuracy    <       0.00029031 Ry

     iteration # 12     ecut=    66.00 Ry     beta= 0.10
     Davidson diagonalization with overlap
     ethr =  3.02E-07,  avg # of iterations =  4.2

     total cpu time spent up to now is       57.7 secs

     total energy              =   -1130.04056920 Ry
     Harris-Foulkes estimate   =   -1130.04042455 Ry
     estimated scf accuracy    <       0.00181262 Ry

     iteration # 13     ecut=    66.00 Ry     beta= 0.10
     Davidson diagonalization with overlap
     ethr =  3.02E-07,  avg # of iterations =  1.0

     total cpu time spent up to now is       60.2 secs

     total energy              =   -1130.03957320 Ry
     Harris-Foulkes estimate   =   -1130.04057091 Ry
     estimated scf accuracy    <       0.00172116 Ry

     iteration # 14     ecut=    66.00 Ry     beta= 0.10
     Davidson diagonalization with overlap
     ethr =  3.02E-07,  avg # of iterations =  3.3

     total cpu time spent up to now is       64.2 secs

     total energy              =   -1130.03962256 Ry
     Harris-Foulkes estimate   =   -1130.03964478 Ry
     estimated scf accuracy    <       0.00061624 Ry

     iteration # 15     ecut=    66.00 Ry     beta= 0.10
     Davidson diagonalization with overlap
     ethr =  3.02E-07,  avg # of iterations =  1.0

     total cpu time spent up to now is       66.7 secs

     total energy              =   -1130.03961313 Ry
     Harris-Foulkes estimate   =   -1130.03963135 Ry
     estimated scf accuracy    <       0.00029164 Ry

     iteration # 16     ecut=    66.00 Ry     beta= 0.10
     Davidson diagonalization with overlap
     ethr =  3.02E-07,  avg # of iterations =  1.0

     total cpu time spent up to now is       69.2 secs

     total energy              =   -1130.03958526 Ry
     Harris-Foulkes estimate   =   -1130.03962005 Ry
     estimated scf accuracy    <       0.00010245 Ry

     iteration # 17     ecut=    66.00 Ry     beta= 0.10
     Davidson diagonalization with overlap
     ethr =  1.07E-07,  avg # of iterations =  4.0

     total cpu time spent up to now is       73.4 secs

     total energy              =   -1130.03961206 Ry
     Harris-Foulkes estimate   =   -1130.03960095 Ry
     estimated scf accuracy    <       0.00000162 Ry

     iteration # 18     ecut=    66.00 Ry     beta= 0.10
     Davidson diagonalization with overlap
     ethr =  1.69E-09,  avg # of iterations =  5.1

     total cpu time spent up to now is       80.0 secs

     total energy              =   -1130.03959604 Ry
     Harris-Foulkes estimate   =   -1130.03961405 Ry
     estimated scf accuracy    <       0.00000287 Ry

     iteration # 19     ecut=    66.00 Ry     beta= 0.10
     Davidson diagonalization with overlap
     ethr =  1.69E-09,  avg # of iterations =  4.7

     total cpu time spent up to now is       86.6 secs

     total energy              =   -1130.03960132 Ry
     Harris-Foulkes estimate   =   -1130.03959886 Ry
     estimated scf accuracy    <       0.00002762 Ry

     iteration # 20     ecut=    66.00 Ry     beta= 0.10
     Davidson diagonalization with overlap
     ethr =  1.69E-09,  avg # of iterations =  3.6

     total cpu time spent up to now is       90.6 secs

     total energy              =   -1130.03959972 Ry
     Harris-Foulkes estimate   =   -1130.03960178 Ry
     estimated scf accuracy    <       0.00005949 Ry

     iteration # 21     ecut=    66.00 Ry     beta= 0.10
     Davidson diagonalization with overlap
     ethr =  1.69E-09,  avg # of iterations =  1.0

     total cpu time spent up to now is       93.1 secs

     total energy              =   -1130.03960118 Ry
     Harris-Foulkes estimate   =   -1130.03959984 Ry
     estimated scf accuracy    <       0.00004660 Ry

     iteration # 22     ecut=    66.00 Ry     beta= 0.10
     Davidson diagonalization with overlap
     ethr =  1.69E-09,  avg # of iterations =  1.0

     total cpu time spent up to now is       95.6 secs

     total energy              =   -1130.03960305 Ry
     Harris-Foulkes estimate   =   -1130.03960125 Ry
     estimated scf accuracy    <       0.00005520 Ry

     iteration # 23     ecut=    66.00 Ry     beta= 0.10
     Davidson diagonalization with overlap
     ethr =  1.69E-09,  avg # of iterations =  1.0

     total cpu time spent up to now is       98.1 secs

     total energy              =   -1130.03960175 Ry
     Harris-Foulkes estimate   =   -1130.03960311 Ry
     estimated scf accuracy    <       0.00006211 Ry

     iteration # 24     ecut=    66.00 Ry     beta= 0.10
     Davidson diagonalization with overlap
     ethr =  1.69E-09,  avg # of iterations =  1.0

     total cpu time spent up to now is      100.6 secs

     total energy              =   -1130.03960067 Ry
     Harris-Foulkes estimate   =   -1130.03960181 Ry
     estimated scf accuracy    <       0.00005416 Ry

     iteration # 25     ecut=    66.00 Ry     beta= 0.10
     Davidson diagonalization with overlap
     ethr =  1.69E-09,  avg # of iterations =  1.0

     total cpu time spent up to now is      103.1 secs

     total energy              =   -1130.03960190 Ry
     Harris-Foulkes estimate   =   -1130.03960070 Ry
     estimated scf accuracy    <       0.00004638 Ry

     iteration # 26     ecut=    66.00 Ry     beta= 0.10
     Davidson diagonalization with overlap
     ethr =  1.69E-09,  avg # of iterations =  1.0

     total cpu time spent up to now is      105.6 secs

     total energy              =   -1130.03959981 Ry
     Harris-Foulkes estimate   =   -1130.03960192 Ry
     estimated scf accuracy    <       0.00004767 Ry

     iteration # 27     ecut=    66.00 Ry     beta= 0.10
     Davidson diagonalization with overlap
     ethr =  1.69E-09,  avg # of iterations =  1.0

     total cpu time spent up to now is      108.1 secs

     total energy              =   -1130.03959674 Ry
     Harris-Foulkes estimate   =   -1130.03959987 Ry
     estimated scf accuracy    <       0.00003844 Ry

     iteration # 28     ecut=    66.00 Ry     beta= 0.10
     Davidson diagonalization with overlap
     ethr =  1.69E-09,  avg # of iterations =  4.0

     total cpu time spent up to now is      113.2 secs

     total energy              =   -1130.03959964 Ry
     Harris-Foulkes estimate   =   -1130.03959767 Ry
     estimated scf accuracy    <       0.00000844 Ry

     iteration # 29     ecut=    66.00 Ry     beta= 0.10
     Davidson diagonalization with overlap
     ethr =  1.69E-09,  avg # of iterations =  3.8

     total cpu time spent up to now is      117.6 secs

     End of self-consistent calculation

          k = 0.1000 0.1000 0.1000 (  4785 PWs)   bands (ev):

    29.6273  35.1235  35.1347  35.1438  37.0404  37.0497  37.0572  39.6223
    39.6328  39.6413  40.8551  40.8575  40.8597  41.2592  41.2656  41.2675
    41.2731  41.2833  41.2842  42.6987  42.7061  42.7120  43.0640  44.2835
    44.2865  44.2924  44.2962  44.3017  44.3079  44.6160  44.6272  44.6378
    46.2162  46.2277  46.2390  47.7208  52.1399  52.1421  52.1447  52.7679
    52.7693  52.7712  52.7720  52.7739  52.7755  53.4238  53.4254  53.4276
    53.4299  53.4313  53.4331  53.7638  53.7649  53.7654  54.4513  54.4530
    54.4541  54.7105

          k = 0.1000 0.1000 0.3000 (  4773 PWs)   bands (ev):

    30.2909  33.2192  35.6636  35.6680  37.5632  37.5670  38.0386  38.0427
    38.7204  39.8153  39.8195  40.0109  40.6097  41.4470  41.4491  41.6550
    41.6621  41.7663  42.7418  42.7447  43.1152  43.3994  43.4093  43.5611
    43.5623  43.8750  43.8766  44.2323  44.2335  44.4869  44.4896  44.9371
    46.4877  47.9434  47.9544  49.4684  51.1127  52.1962  52.1986  52.3180
    52.3219  52.3631  52.3708  52.5263  52.5275  52.5777  52.5786  52.7708
    52.8517  52.8521  53.6355  53.6387  53.7483  53.7509  53.8351  53.9444
    53.9462  54.1355

          k = 0.1000 0.1000-0.5000 (  4804 PWs)   bands (ev):

    31.5334  31.5426  36.6624  36.6688  36.6741  36.6770  38.5226  38.5276
    38.5318  38.5351  39.9293  39.9419  40.7325  40.7388  42.3834  42.3907
    42.3936  42.3978  42.4587  42.4600  42.4628  42.4655  43.7754  43.7777
    43.7870  43.7900  43.8843  43.8874  44.4819  44.4837  44.4914  44.4934
    48.6358  48.6534  49.9896  50.0022  50.0124  50.0193  51.5076  51.5225
    52.2514  52.2581  52.2659  52.2733  52.3205  52.3227  52.3238  52.3259
    52.8327  52.8469  52.8546  52.8657  54.0165  54.0440  54.0752  54.0760
    54.0767  54.0783

          k = 0.1000 0.3000 0.3000 (  4792 PWs)   bands (ev):

    30.9336  33.7782  33.7915  36.1700  36.3257  38.0552  38.4432  38.4550
    39.2413  39.2472  40.2174  40.2281  40.3594  41.1811  41.1910  41.4321
    41.4459  42.0204  42.0741  43.1748  43.1807  43.3347  43.3435  43.9708
    43.9745  44.3066  44.3101  44.5336  44.5433  44.5467  45.0530  45.0685
    46.8523  46.8683  49.6489  50.2234  50.2286  51.1703  51.1743  51.2054
    51.2166  51.2513  52.0559  52.0868  52.0938  52.1205  52.6812  52.6826
    52.7405  52.7518  53.7598  53.7695  53.9901  53.9907  54.2513  54.3076
    54.3287  54.5329

          k = 0.1000 0.3000-0.5000 (  4754 PWs)   bands (ev):

    32.1399  32.1492  34.8525  34.8615  37.1241  37.1324  38.9729  38.9793
    39.2335  39.2416  40.2014  40.2061  40.4790  40.4916  40.9924  40.9986
    42.1909  42.1929  42.6586  42.6708  42.9838  42.9884  43.9857  43.9884
    44.2158  44.2267  44.4772  44.4839  44.7794  44.7870  45.0483  45.0490
    47.9006  47.9173  48.8921  48.9088  50.1998  50.2120  50.7086  50.7216
    51.5925  51.6077  51.7661  51.7777  52.0409  52.0469  52.7136  52.7166
    53.2492  53.2641  53.2734  53.2879  53.8491  53.8749  54.1245  54.1267
    54.3169  54.3250

          k = 0.1000-0.5000-0.5000 (  4740 PWs)   bands (ev):

    33.2821  33.2878  33.2969  33.3013  37.9972  38.0023  38.0102  38.0140
    39.8179  39.8221  39.8290  39.8322  41.4462  41.4546  41.4663  41.4681
    41.4697  41.4734  41.4785  41.4864  43.8111  43.8128  43.8164  43.8187
    44.8935  44.8963  44.9037  44.9050  44.9062  44.9088  44.9106  44.9148
    48.8001  48.8104  48.8139  48.8219  48.8262  48.8316  48.8355  48.8469
    51.7366  51.7407  51.7482  51.7534  53.3700  53.3739  53.3800  53.3865
    53.5651  53.5694  53.5807  53.5851  53.5937  53.5999  53.6080  53.6173
    54.1904  54.1919

          k = 0.3000 0.3000 0.3000 (  4788 PWs)   bands (ev):

    31.5540  34.3127  34.3246  34.3341  36.7590  36.7704  36.7796  38.8464
    39.7422  39.7475  39.7518  41.7408  41.7472  41.7534  41.8693  41.8736
    41.8768  41.8829  41.8893  41.8916  43.7885  43.7936  43.7967  43.8001
    43.8015  43.8075  43.8128  43.8215  43.8287  44.8371  44.8382  44.8393
    48.4396  48.4514  48.4633  49.7957  49.8020  49.8072  51.4780  51.4794
    51.4816  51.4851  51.4908  51.4967  52.3586  52.3640  52.3664  52.3705
    52.3829  52.3881  52.4225  52.4289  52.4377  53.1024  54.7219  54.7277
    54.7342  55.3083

          k = 0.3000 0.3000-0.5000 (  4758 PWs)   bands (ev):

    32.7220  32.7313  35.3420  35.3487  35.3546  35.3573  37.6235  37.6317
    40.6691  40.6724  40.6745  40.6780  41.0130  41.0257  42.6961  42.7026
    42.7058  42.7096  42.7190  42.7203  42.7228  42.7276  43.1401  43.1419
    43.1518  43.1550  44.4873  44.4894  44.4921  44.4970  44.9297  44.9382
    48.2776  48.2899  50.2919  50.3113  50.3131  50.3227  50.3381  50.3434
    50.3518  50.3625  51.5153  51.5302  51.5382  51.5508  51.9469  51.9539
    51.9550  51.9590  53.2588  53.2822  53.5643  53.5738  53.5767  53.5857
    55.2175  55.2279

          k = 0.3000-0.5000-0.5000 (  4772 PWs)   bands (ev):

    33.8224  33.8281  33.8371  33.8415  36.2892  36.2946  36.3033  36.3073
    41.5412  41.5441  41.5490  41.5513  41.9552  41.9636  41.9758  41.9774
    41.9788  41.9829  41.9879  41.9961  43.6119  43.6127  43.6144  43.6155
    43.9807  43.9878  44.0000  44.0010  44.0021  44.0069  44.0104  44.0186
    49.7308  49.7362  49.7440  49.7528  49.7605  49.7618  49.7683  49.7762
    51.0349  51.0385  51.0449  51.0487  51.8993  51.9023  51.9098  51.9148
    52.4058  52.4086  52.4134  52.4212  52.4332  52.4340  52.4433  52.4437
    56.0436  56.0468

          k =-0.5000-0.5000-0.5000 (  4776 PWs)   bands (ev):

    34.8438  34.8540  34.8562  34.8633  34.8675  34.8702  34.8806  34.8834
    42.8558  42.8593  42.8648  42.8704  42.8768  42.8786  42.8807  42.8816
    42.8830  42.8845  42.8863  42.8886  42.8925  42.8968  42.8980  42.9018
    42.9030  42.9072  42.9078  42.9140  42.9176  42.9192  42.9209  42.9270
    50.9921  51.0040  51.0086  51.0138  51.0170  51.0217  51.0261  51.0299
    51.0313  51.0339  51.0349  51.0380  51.0416  51.0434  51.0468  51.0534
    51.0546  51.0623  51.0629  51.0687  51.0728  51.0776  51.0843  51.0861
    58.6606  58.6644

          k =-0.1000-0.1000 0.1000 (  4785 PWs)   bands (ev):

    29.6273  35.1254  35.1347  35.1418  37.0420  37.0498  37.0556  39.6241
    39.6328  39.6394  40.8561  40.8574  40.8589  41.2534  41.2635  41.2688
    41.2701  41.2834  41.2941  42.6998  42.7060  42.7109  43.0639  44.2835
    44.2870  44.2927  44.2963  44.3013  44.3076  44.6204  44.6269  44.6336
    46.2207  46.2276  46.2346  47.7208  52.1407  52.1423  52.1436  52.7680
    52.7695  52.7701  52.7722  52.7748  52.7753  53.4230  53.4261  53.4285
    53.4293  53.4302  53.4329  53.7641  53.7653  53.7661  54.4519  54.4527
    54.4537  54.7039

          k =-0.1000 0.1000-0.1000 (  4785 PWs)   bands (ev):

    29.6273  35.1243  35.1340  35.1437  37.0411  37.0492  37.0571  39.6230
    39.6321  39.6412  40.8550  40.8574  40.8600  41.2511  41.2610  41.2718
    41.2765  41.2844  41.2883  42.6992  42.7055  42.7120  43.0638  44.2837
    44.2875  44.2920  44.2966  44.3014  44.3070  44.6153  44.6270  44.6387
    46.2154  46.2276  46.2399  47.7208  52.1396  52.1421  52.1449  52.7686
    52.7694  52.7707  52.7722  52.7737  52.7751  53.4251  53.4262  53.4279
    53.4290  53.4310  53.4318  53.7643  53.7647  53.7658  54.4513  54.4528
    54.4545  54.7015

          k = 0.1000-0.1000-0.1000 (  4785 PWs)   bands (ev):

    29.6273  35.1230  35.1364  35.1425  37.0400  37.0512  37.0561  39.6220
    39.6344  39.6400  40.8547  40.8574  40.8603  41.2521  41.2643  41.2704
    41.2748  41.2819  41.2895  42.6982  42.7071  42.7112  43.0640  44.2841
    44.2867  44.2914  44.2965  44.3016  44.3079  44.6141  44.6270  44.6401
    46.2140  46.2276  46.2413  47.7207  52.1393  52.1423  52.1451  52.7678
    52.7686  52.7706  52.7732  52.7743  52.7756  53.4244  53.4258  53.4270
    53.4289  53.4305  53.4326  53.7636  53.7654  53.7672  54.4511  54.4527
    54.4547  54.7008

          k =-0.1000-0.1000 0.3000 (  4773 PWs)   bands (ev):

    30.2909  33.2192  35.6636  35.6680  37.5634  37.5670  38.0385  38.0428
    38.7203  39.8157  39.8193  40.0105  40.6098  41.4470  41.4491  41.6542
    41.6628  41.7665  42.7420  42.7446  43.1150  43.3997  43.4094  43.5608
    43.5625  43.8749  43.8764  44.2323  44.2334  44.4869  44.4896  44.9372
    46.4877  47.9433  47.9544  49.4684  51.1126  52.1966  52.1981  52.3152
    52.3220  52.3632  52.3738  52.5263  52.5277  52.5774  52.5784  52.7712
    52.8513  52.8522  53.6357  53.6384  53.7497  53.7512  53.8339  53.9445
    53.9459  54.1351

          k =-0.1000 0.1000-0.3000 (  4773 PWs)   bands (ev):

    30.2909  33.2192  35.6619  35.6698  37.5620  37.5685  38.0367  38.0445
    38.7202  39.8142  39.8208  40.0107  40.6097  41.4459  41.4502  41.6512
    41.6668  41.7655  42.7410  42.7455  43.1152  43.3950  43.4142  43.5601
    43.5632  43.8741  43.8770  44.2317  44.2340  44.4858  44.4908  44.9372
    46.4877  47.9379  47.9599  49.4685  51.1127  52.1952  52.1995  52.3183
    52.3202  52.3561  52.3783  52.5262  52.5287  52.5772  52.5787  52.7701
    52.8516  52.8532  53.6348  53.6396  53.7492  53.7515  53.8331  53.9449
    53.9463  54.1348

          k = 0.1000-0.1000-0.3000 (  4773 PWs)   bands (ev):

    30.2909  33.2192  35.6619  35.6697  37.5617  37.5684  38.0369  38.0446
    38.7205  39.8143  39.8209  40.0103  40.6097  41.4459  41.4502  41.6498
    41.6671  41.7665  42.7413  42.7456  43.1144  43.3951  43.4140  43.5599
    43.5632  43.8746  43.8772  44.2318  44.2342  44.4857  44.4907  44.9371
    46.4878  47.9380  47.9599  49.4683  51.1126  52.1955  52.1994  52.3207
    52.3215  52.3539  52.3770  52.5260  52.5284  52.5774  52.5790  52.7713
    52.8513  52.8520  53.6349  53.6390  53.7487  53.7511  53.8351  53.9443
    53.9459  54.1352

          k = 0.3000-0.1000 0.1000 (  4773 PWs)   bands (ev):

    30.2909  33.2192  35.6614  35.6702  37.5616  37.5690  38.0363  38.0447
    38.7203  39.8140  39.8213  40.0103  40.6098  41.4471  41.4490  41.6560
    41.6626  41.7648  42.7407  42.7458  43.1153  43.4002  43.4086  43.5610
    43.5623  43.8742  43.8772  44.2317  44.2342  44.4855  44.4911  44.9372
    46.4877  47.9440  47.9537  49.4684  51.1126  52.1968  52.1982  52.3170
    52.3191  52.3643  52.3723  52.5270  52.5280  52.5771  52.5791  52.7706
    52.8510  52.8527  53.6349  53.6391  53.7497  53.7509  53.8337  53.9440
    53.9469  54.1348

          k =-0.3000-0.1000-0.1000 (  4773 PWs)   bands (ev):

    30.2909  33.2192  35.6595  35.6722  37.5600  37.5705  38.0342  38.0467
    38.7203  39.8122  39.8229  40.0107  40.6097  41.4462  41.4498  41.6525
    41.6662  41.7648  42.7395  42.7467  43.1156  43.3961  43.4124  43.5606
    43.5630  43.8734  43.8780  44.2310  44.2347  44.4843  44.4923  44.9372
    46.4877  47.9394  47.9584  49.4683  51.1127  52.1949  52.1991  52.3165
    52.3218  52.3592  52.3768  52.5262  52.5282  52.5764  52.5796  52.7714
    52.8512  52.8522  53.6334  53.6412  53.7485  53.7510  53.8349  53.9438
    53.9460  54.1341

          k = 0.3000 0.1000-0.1000 (  4773 PWs)   bands (ev):

    30.2909  33.2192  35.6614  35.6702  37.5617  37.5689  38.0362  38.0447
    38.7205  39.8140  39.8214  40.0102  40.6098  41.4471  41.4489  41.6558
    41.6627  41.7647  42.7407  42.7461  43.1152  43.3999  43.4087  43.5611
    43.5623  43.8744  43.8772  44.2315  44.2342  44.4855  44.4910  44.9373
    46.4876  47.9440  47.9537  49.4684  51.1127  52.1966  52.1984  52.3174
    52.3214  52.3631  52.3709  52.5266  52.5279  52.5773  52.5790  52.7716
    52.8507  52.8519  53.6346  53.6398  53.7490  53.7505  53.8351  53.9442
    53.9458  54.1349

          k =-0.3000 0.1000 0.1000 (  4773 PWs)   bands (ev):

    30.2909  33.2192  35.6595  35.6722  37.5599  37.5705  38.0343  38.0467
    38.7205  39.8120  39.8229  40.0108  40.6098  41.4461  41.4498  41.6521
    41.6663  41.7651  42.7397  42.7469  43.1154  43.3957  43.4124  43.5604
    43.5631  43.8734  43.8783  44.2311  44.2347  44.4843  44.4923  44.9372
    46.4877  47.9394  47.9584  49.4683  51.1125  52.1955  52.1985  52.3184
    52.3237  52.3572  52.3749  52.5261  52.5281  52.5764  52.5794  52.7717
    52.8513  52.8523  53.6334  53.6410  53.7494  53.7515  53.8337  53.9438
    53.9463  54.1343

          k =-0.1000 0.3000 0.1000 (  4773 PWs)   bands (ev):

    30.2909  33.2192  35.6592  35.6725  37.5594  37.5708  38.0342  38.0471
    38.7205  39.8119  39.8230  40.0108  40.6097  41.4479  41.4482  41.6570
    41.6601  41.7663  42.7396  42.7470  43.1148  43.4039  43.4048  43.5616
    43.5618  43.8735  43.8784  44.2310  44.2348  44.4840  44.4925  44.9371
    46.4878  47.9483  47.9496  49.4682  51.1126  52.1972  52.1974  52.3188
    52.3239  52.3645  52.3672  52.5262  52.5267  52.5770  52.5798  52.7715
    52.8506  52.8524  53.6329  53.6407  53.7484  53.7506  53.8358  53.9439
    53.9467  54.1345

          k =-0.1000-0.3000-0.1000 (  4773 PWs)   bands (ev):

    30.2909  33.2192  35.6581  35.6735  37.5585  37.5717  38.0333  38.0481
    38.7204  39.8111  39.8243  40.0103  40.6097  41.4471  41.4491  41.6555
    41.6615  41.7663  42.7389  42.7479  43.1148  43.3998  43.4092  43.5608
    43.5624  43.8731  43.8785  44.2305  44.2353  44.4832  44.4933  44.9370
    46.4878  47.9438  47.9540  49.4684  51.1128  52.1967  52.1985  52.3170
    52.3237  52.3592  52.3720  52.5270  52.5280  52.5761  52.5794  52.7715
    52.8517  52.8525  53.6321  53.6408  53.7500  53.7509  53.8339  53.9437
    53.9476  54.1338

          k = 0.1000 0.3000-0.1000 (  4773 PWs)   bands (ev):

    30.2909  33.2192  35.6592  35.6725  37.5597  37.5708  38.0340  38.0471
    38.7203  39.8122  39.8233  40.0101  40.6098  41.4478  41.4482  41.6582
    41.6596  41.7656  42.7396  42.7472  43.1149  43.4039  43.4051  43.5617
    43.5619  43.8731  43.8781  44.2307  44.2348  44.4840  44.4926  44.9372
    46.4877  47.9483  47.9496  49.4684  51.1126  52.1970  52.1975  52.3182
    52.3216  52.3656  52.3693  52.5266  52.5268  52.5767  52.5793  52.7716
    52.8509  52.8520  53.6328  53.6410  53.7491  53.7504  53.8346  53.9444
    53.9470  54.1341

          k = 0.1000-0.3000 0.1000 (  4773 PWs)   bands (ev):

    30.2909  33.2192  35.6581  35.6735  37.5588  37.5716  38.0331  38.0481
    38.7203  39.8109  39.8240  40.0107  40.6097  41.4471  41.4491  41.6547
    41.6627  41.7659  42.7389  42.7477  43.1152  43.4000  43.4091  43.5609
    43.5623  43.8729  43.8784  44.2306  44.2352  44.4832  44.4933  44.9371
    46.4878  47.9437  47.9540  49.4684  51.1128  52.1967  52.1986  52.3138
    52.3232  52.3608  52.3746  52.5266  52.5278  52.5766  52.5797  52.7712
    52.8508  52.8526  53.6323  53.6415  53.7500  53.7510  53.8338  53.9436
    53.9469  54.1337

          k =-0.1000 0.1000 0.5000 (  4804 PWs)   bands (ev):

    31.5334  31.5426  36.6609  36.6707  36.6714  36.6794  38.5211  38.5293
    38.5299  38.5368  39.9293  39.9419  40.7324  40.7388  42.3805  42.3849
    42.3971  42.4031  42.4573  42.4612  42.4624  42.4661  43.7762  43.7777
    43.7874  43.7892  43.8837  43.8876  44.4818  44.4838  44.4912  44.4936
    48.6358  48.6534  49.9867  50.0002  50.0109  50.0258  51.5077  51.5223
    52.2537  52.2566  52.2671  52.2705  52.3204  52.3227  52.3235  52.3268
    52.8390  52.8452  52.8559  52.8600  54.0164  54.0437  54.0744  54.0757
    54.0775  54.0791

          k =-0.5000-0.1000 0.1000 (  4804 PWs)   bands (ev):

    31.5328  31.5432  36.6614  36.6678  36.6712  36.6820  38.5215  38.5269
    38.5298  38.5388  39.9288  39.9426  40.7320  40.7391  42.3794  42.3930
    42.3954  42.3975  42.4585  42.4603  42.4615  42.4667  43.7761  43.7771
    43.7882  43.7899  43.8832  43.8874  44.4811  44.4837  44.4925  44.4934
    48.6349  48.6543  49.9837  50.0071  50.0118  50.0206  51.5070  51.5230
    52.2524  52.2559  52.2689  52.2715  52.3198  52.3230  52.3247  52.3255
    52.8383  52.8430  52.8554  52.8631  54.0154  54.0463  54.0750  54.0752
    54.0763  54.0785

          k = 0.5000-0.1000-0.1000 (  4804 PWs)   bands (ev):

    31.5328  31.5432  36.6605  36.6675  36.6712  36.6833  38.5206  38.5261
    38.5296  38.5405  39.9288  39.9426  40.7321  40.7392  42.3814  42.3860
    42.3956  42.4014  42.4579  42.4613  42.4628  42.4659  43.7744  43.7776
    43.7863  43.7925  43.8838  43.8873  44.4802  44.4844  44.4921  44.4939
    48.6348  48.6543  49.9872  50.0008  50.0101  50.0255  51.5069  51.5228
    52.2479  52.2581  52.2658  52.2766  52.3200  52.3229  52.3240  52.3267
    52.8269  52.8486  52.8540  52.8707  54.0154  54.0464  54.0742  54.0756
    54.0770  54.0780

          k =-0.1000-0.5000 0.1000 (  4804 PWs)   bands (ev):

    31.5366  31.5393  36.6595  36.6668  36.6766  36.6794  38.5193  38.5263
    38.5342  38.5373  39.9336  39.9376  40.7348  40.7366  42.3895  42.3905
    42.3921  42.3931  42.4609  42.4611  42.4624  42.4627  43.7770  43.7825
    43.7840  43.7872  43.8847  43.8864  44.4840  44.4859  44.4881  44.4924
    48.6418  48.6472  50.0020  50.0035  50.0085  50.0099  51.5128  51.5172
    52.2529  52.2608  52.2637  52.2706  52.3223  52.3229  52.3238  52.3243
    52.8343  52.8466  52.8517  52.8672  54.0260  54.0348  54.0757  54.0761
    54.0769  54.0775

          k =-0.1000 0.5000-0.1000 (  4804 PWs)   bands (ev):

    31.5366  31.5393  36.6604  36.6648  36.6775  36.6796  38.5208  38.5243
    38.5352  38.5369  39.9336  39.9376  40.7347  40.7365  42.3830  42.3917
    42.3926  42.3984  42.4601  42.4608  42.4613  42.4645  43.7787  43.7823
    43.7837  43.7861  43.8845  43.8865  44.4847  44.4867  44.4881  44.4910
    48.6420  48.6473  49.9930  50.0078  50.0085  50.0141  51.5129  51.5173
    52.2582  52.2612  52.2629  52.2663  52.3209  52.3234  52.3238  52.3244
    52.8423  52.8482  52.8528  52.8568  54.0261  54.0350  54.0752  54.0759
    54.0768  54.0780

          k =-0.1000-0.3000 0.3000 (  4792 PWs)   bands (ev):

    30.9336  33.7802  33.7894  36.1700  36.3258  38.0550  38.4448  38.4535
    39.2422  39.2463  40.2193  40.2252  40.3602  41.1836  41.1886  41.4355
    41.4425  42.0204  42.0741  43.1757  43.1800  43.3359  43.3421  43.9713
    43.9740  44.3069  44.3096  44.5330  44.5443  44.5462  45.0569  45.0647
    46.8561  46.8643  49.6496  50.2240  50.2274  51.1694  51.1715  51.2119
    51.2200  51.2454  52.0552  52.0876  52.0935  52.1206  52.6814  52.6824
    52.7433  52.7492  53.7610  53.7678  53.9899  53.9904  54.2511  54.3134
    54.3239  54.5334

          k =-0.1000 0.3000-0.3000 (  4792 PWs)   bands (ev):

    30.9336  33.7802  33.7894  36.1701  36.3257  38.0551  38.4448  38.4534
    39.2423  39.2463  40.2193  40.2257  40.3597  41.1836  41.1886  41.4355
    41.4425  42.0203  42.0742  43.1758  43.1800  43.3359  43.3420  43.9713
    43.9740  44.3069  44.3096  44.5322  44.5445  44.5468  45.0568  45.0648
    46.8561  46.8643  49.6494  50.2242  50.2274  51.1699  51.1712  51.2118
    51.2201  51.2448  52.0551  52.0878  52.0935  52.1205  52.6814  52.6824
    52.7434  52.7490  53.7615  53.7681  53.9900  53.9904  54.2511  54.3131
    54.3235  54.5335

          k = 0.1000-0.3000-0.3000 (  4792 PWs)   bands (ev):

    30.9336  33.7782  33.7915  36.1699  36.3258  38.0549  38.4433  38.4552
    39.2414  39.2472  40.2171  40.2276  40.3601  41.1811  41.1910  41.4322
    41.4459  42.0204  42.0740  43.1748  43.1807  43.3347  43.3435  43.9707
    43.9745  44.3066  44.3101  44.5336  44.5433  44.5467  45.0531  45.0685
    46.8522  46.8683  49.6493  50.2232  50.2283  51.1699  51.1742  51.2037
    51.2166  51.2538  52.0559  52.0865  52.0938  52.1202  52.6813  52.6826
    52.7407  52.7519  53.7600  53.7694  53.9899  53.9904  54.2512  54.3078
    54.3292  54.5329

          k = 0.3000 0.1000-0.3000 (  4792 PWs)   bands (ev):

    30.9336  33.7778  33.7918  36.1699  36.3258  38.0553  38.4427  38.4552
    39.2411  39.2473  40.2177  40.2283  40.3589  41.1857  41.1865  41.4382
    41.4396  42.0204  42.0744  43.1748  43.1809  43.3344  43.3437  43.9706
    43.9747  44.3064  44.3103  44.5325  44.5449  44.5460  45.0601  45.0613
    46.8597  46.8609  49.6491  50.2234  50.2283  51.1706  51.1725  51.2068
    51.2191  51.2490  52.0544  52.0875  52.0943  52.1210  52.6814  52.6827
    52.7457  52.7464  53.7594  53.7698  53.9903  53.9905  54.2512  54.3175
    54.3189  54.5328

          k =-0.3000-0.1000-0.3000 (  4792 PWs)   bands (ev):

    30.9336  33.7767  33.7929  36.1700  36.3258  38.0552  38.4415  38.4564
    39.2408  39.2478  40.2169  40.2285  40.3595  41.1834  41.1889  41.4352
    41.4427  42.0203  42.0744  43.1741  43.1814  43.3335  43.3443  43.9703
    43.9750  44.3062  44.3106  44.5333  44.5442  44.5460  45.0566  45.0650
    46.8559  46.8645  49.6495  50.2225  50.2287  51.1701  51.1712  51.2143
    51.2192  51.2431  52.0552  52.0860  52.0954  52.1210  52.6811  52.6825
    52.7434  52.7491  53.7586  53.7705  53.9897  53.9903  54.2512  54.3127
    54.3242  54.5327

          k = 0.3000-0.1000 0.3000 (  4792 PWs)   bands (ev):

    30.9336  33.7767  33.7929  36.1699  36.3259  38.0553  38.4415  38.4563
    39.2406  39.2479  40.2171  40.2288  40.3590  41.1834  41.1888  41.4354
    41.4424  42.0204  42.0745  43.1742  43.1815  43.3336  43.3443  43.9703
    43.9750  44.3063  44.3105  44.5332  44.5443  44.5461  45.0566  45.0649
    46.8558  46.8646  49.6495  50.2225  50.2288  51.1710  51.1719  51.2137
    51.2185  51.2430  52.0542  52.0867  52.0954  52.1211  52.6812  52.6823
    52.7433  52.7492  53.7586  53.7704  53.9902  53.9904  54.2512  54.3125
    54.3243  54.5325

          k =-0.3000 0.1000 0.3000 (  4792 PWs)   bands (ev):

    30.9336  33.7778  33.7918  36.1700  36.3257  38.0551  38.4428  38.4552
    39.2414  39.2474  40.2169  40.2283  40.3594  41.1858  41.1865  41.4385
    41.4395  42.0204  42.0743  43.1747  43.1809  43.3344  43.3437  43.9705
    43.9747  44.3063  44.3102  44.5332  44.5449  44.5453  45.0604  45.0613
    46.8597  46.8609  49.6494  50.2232  50.2282  51.1712  51.1723  51.2049
    51.2190  51.2505  52.0533  52.0880  52.0946  52.1212  52.6813  52.6827
    52.7458  52.7465  53.7594  53.7699  53.9902  53.9904  54.2511  54.3174
    54.3193  54.5330

          k = 0.3000-0.3000 0.1000 (  4792 PWs)   bands (ev):

    30.9336  33.7807  33.7889  36.1700  36.3257  38.0555  38.4452  38.4526
    39.2424  39.2461  40.2201  40.2263  40.3584  41.1804  41.1919  41.4308
    41.4469  42.0203  42.0744  43.1761  43.1796  43.3363  43.3417  43.9714
    43.9738  44.3073  44.3094  44.5324  44.5435  44.5475  45.0518  45.0697
    46.8510  46.8696  49.6491  50.2246  50.2272  51.1689  51.1732  51.2082
    51.2190  51.2486  52.0557  52.0888  52.0926  52.1202  52.6813  52.6825
    52.7398  52.7526  53.7617  53.7674  53.9901  53.9903  54.2512  54.3058
    54.3308  54.5334

          k =-0.3000-0.3000-0.1000 (  4792 PWs)   bands (ev):

    30.9336  33.7825  33.7871  36.1701  36.3257  38.0553  38.4470  38.4510
    39.2433  39.2452  40.2208  40.2249  40.3590  41.1832  41.1891  41.4349
    41.4430  42.0203  42.0744  43.1768  43.1789  43.3375  43.3405  43.9720
    43.9732  44.3077  44.3090  44.5332  44.5441  44.5462  45.0563  45.0653
    46.8556  46.8649  49.6494  50.2249  50.2267  51.1702  51.1719  51.2089
    51.2186  51.2482  52.0564  52.0887  52.0917  52.1203  52.6817  52.6820
    52.7430  52.7495  53.7629  53.7664  53.9896  53.9905  54.2513  54.3123
    54.3243  54.5342

          k = 0.3000 0.3000-0.1000 (  4792 PWs)   bands (ev):

    30.9336  33.7825  33.7871  36.1699  36.3258  38.0554  38.4468  38.4510
    39.2432  39.2453  40.2214  40.2248  40.3586  41.1832  41.1890  41.4351
    41.4428  42.0203  42.0744  43.1769  43.1789  43.3375  43.3405  43.9719
    43.9732  44.3076  44.3090  44.5325  44.5445  44.5466  45.0562  45.0652
    46.8556  46.8650  49.6493  50.2250  50.2266  51.1712  51.1726  51.2098
    51.2170  51.2475  52.0552  52.0887  52.0924  52.1204  52.6818  52.6820
    52.7429  52.7495  53.7630  53.7659  53.9900  53.9903  54.2514  54.3124
    54.3244  54.5340

          k =-0.3000 0.3000 0.1000 (  4792 PWs)   bands (ev):

    30.9336  33.7807  33.7889  36.1700  36.3257  38.0552  38.4454  38.4526
    39.2427  39.2461  40.2191  40.2264  40.3591  41.1805  41.1919  41.4312
    41.4468  42.0203  42.0741  43.1760  43.1796  43.3363  43.3417  43.9713
    43.9738  44.3072  44.3094  44.5331  44.5434  44.5472  45.0519  45.0697
    46.8510  46.8696  49.6493  50.2245  50.2270  51.1696  51.1733  51.2048
    51.2194  51.2507  52.0545  52.0885  52.0938  52.1203  52.6813  52.6825
    52.7399  52.7526  53.7617  53.7678  53.9900  53.9902  54.2514  54.3058
    54.3307  54.5338

          k =-0.1000 0.3000 0.5000 (  4754 PWs)   bands (ev):

    32.1399  32.1492  34.8525  34.8615  37.1242  37.1324  38.9728  38.9795
    39.2336  39.2413  40.2014  40.2063  40.4789  40.4916  40.9925  40.9986
    42.1909  42.1929  42.6586  42.6708  42.9838  42.9885  43.9857  43.9884
    44.2159  44.2267  44.4771  44.4840  44.7794  44.7870  45.0483  45.0490
    47.9006  47.9173  48.8921  48.9088  50.1997  50.2120  50.7086  50.7216
    51.5931  51.6072  51.7652  51.7779  52.0412  52.0469  52.7134  52.7167
    53.2488  53.2625  53.2743  53.2896  53.8489  53.8748  54.1244  54.1266
    54.3169  54.3251

          k = 0.3000 0.1000 0.5000 (  4754 PWs)   bands (ev):

    32.1399  32.1492  34.8526  34.8616  37.1241  37.1323  38.9730  38.9801
    39.2334  39.2405  40.2013  40.2063  40.4790  40.4916  40.9926  40.9989
    42.1909  42.1930  42.6585  42.6708  42.9838  42.9884  43.9857  43.9882
    44.2159  44.2266  44.4772  44.4840  44.7795  44.7870  45.0483  45.0490
    47.9006  47.9173  48.8920  48.9089  50.1999  50.2120  50.7086  50.7216
    51.5928  51.6069  51.7654  51.7783  52.0414  52.0471  52.7132  52.7166
    53.2445  53.2619  53.2786  53.2901  53.8490  53.8749  54.1244  54.1266
    54.3169  54.3252

          k = 0.3000-0.1000-0.5000 (  4754 PWs)   bands (ev):

    32.1399  32.1492  34.8526  34.8616  37.1241  37.1323  38.9731  38.9798
    39.2333  39.2409  40.2013  40.2061  40.4790  40.4915  40.9925  40.9989
    42.1909  42.1930  42.6585  42.6708  42.9838  42.9884  43.9857  43.9883
    44.2159  44.2266  44.4771  44.4840  44.7795  44.7871  45.0484  45.0489
    47.9005  47.9173  48.8921  48.9088  50.1998  50.2121  50.7087  50.7216
    51.5935  51.6072  51.7649  51.7780  52.0412  52.0470  52.7136  52.7167
    53.2433  53.2627  53.2765  53.2925  53.8489  53.8747  54.1246  54.1267
    54.3168  54.3250

          k =-0.5000-0.3000 0.1000 (  4754 PWs)   bands (ev):

    32.1394  32.1497  34.8520  34.8621  37.1236  37.1330  38.9727  38.9806
    39.2327  39.2411  40.2007  40.2063  40.4786  40.4925  40.9923  40.9991
    42.1908  42.1928  42.6580  42.6716  42.9836  42.9885  43.9852  43.9885
    44.2156  44.2273  44.4769  44.4843  44.7791  44.7873  45.0483  45.0489
    47.8997  47.9183  48.8911  48.9098  50.1990  50.2127  50.7079  50.7224
    51.5928  51.6081  51.7645  51.7784  52.0407  52.0471  52.7132  52.7168
    53.2495  53.2638  53.2724  53.2898  53.8478  53.8764  54.1242  54.1266
    54.3163  54.3254

          k = 0.5000-0.3000-0.1000 (  4754 PWs)   bands (ev):

    32.1394  32.1497  34.8520  34.8621  37.1236  37.1330  38.9720  38.9805
    39.2334  39.2411  40.2009  40.2066  40.4786  40.4924  40.9922  40.9989
    42.1908  42.1928  42.6581  42.6716  42.9836  42.9885  43.9852  43.9884
    44.2157  44.2273  44.4768  44.4843  44.7791  44.7873  45.0483  45.0490
    47.8997  47.9183  48.8912  48.9098  50.1991  50.2128  50.7077  50.7223
    51.5928  51.6076  51.7646  51.7790  52.0406  52.0474  52.7133  52.7171
    53.2451  53.2634  53.2749  53.2912  53.8477  53.8763  54.1242  54.1266
    54.3163  54.3252

          k =-0.1000-0.5000 0.3000 (  4754 PWs)   bands (ev):

    32.1432  32.1459  34.8557  34.8584  37.1270  37.1295  38.9747  38.9775
    39.2366  39.2384  40.2029  40.2044  40.4835  40.4875  40.9947  40.9963
    42.1914  42.1922  42.6628  42.6667  42.9854  42.9868  43.9864  43.9872
    44.2197  44.2232  44.4795  44.4816  44.7819  44.7845  45.0485  45.0489
    47.9064  47.9115  48.8979  48.9031  50.2040  50.2077  50.7131  50.7172
    51.5982  51.6026  51.7696  51.7733  52.0431  52.0449  52.7145  52.7156
    53.2518  53.2608  53.2738  53.2878  53.8581  53.8664  54.1252  54.1260
    54.3198  54.3221

          k =-0.1000 0.5000-0.3000 (  4754 PWs)   bands (ev):

    32.1432  32.1459  34.8557  34.8584  37.1270  37.1295  38.9755  38.9775
    39.2360  39.2382  40.2030  40.2043  40.4834  40.4874  40.9947  40.9965
    42.1915  42.1922  42.6628  42.6668  42.9854  42.9869  43.9864  43.9873
    44.2198  44.2231  44.4795  44.4817  44.7819  44.7845  45.0485  45.0488
    47.9064  47.9115  48.8979  48.9031  50.2040  50.2077  50.7131  50.7170
    51.5974  51.6026  51.7703  51.7731  52.0432  52.0449  52.7144  52.7155
    53.2536  53.2621  53.2728  53.2870  53.8581  53.8663  54.1251  54.1259
    54.3197  54.3221

          k = 0.3000-0.5000 0.1000 (  4754 PWs)   bands (ev):

    32.1432  32.1459  34.8557  34.8584  37.1271  37.1295  38.9754  38.9776
    39.2361  39.2381  40.2029  40.2045  40.4833  40.4872  40.9948  40.9965
    42.1917  42.1923  42.6628  42.6667  42.9853  42.9868  43.9866  43.9873
    44.2195  44.2230  44.4795  44.4816  44.7821  44.7845  45.0484  45.0487
    47.9065  47.9115  48.8979  48.9030  50.2041  50.2077  50.7131  50.7171
    51.5980  51.6027  51.7696  51.7734  52.0431  52.0447  52.7145  52.7156
    53.2517  53.2613  53.2757  53.2864  53.8580  53.8663  54.1252  54.1259
    54.3196  54.3220

          k = 0.3000 0.5000-0.1000 (  4754 PWs)   bands (ev):

    32.1432  32.1459  34.8557  34.8584  37.1271  37.1295  38.9755  38.9775
    39.2357  39.2382  40.2033  40.2045  40.4833  40.4873  40.9946  40.9964
    42.1917  42.1923  42.6628  42.6667  42.9853  42.9868  43.9866  43.9873
    44.2195  44.2230  44.4794  44.4818  44.7820  44.7845  45.0485  45.0488
    47.9064  47.9114  48.8981  48.9031  50.2040  50.2078  50.7131  50.7170
    51.5976  51.6029  51.7702  51.7731  52.0431  52.0449  52.7144  52.7156
    53.2488  53.2573  53.2792  53.2893  53.8580  53.8664  54.1252  54.1260
    54.3197  54.3222

          k =-0.5000 0.1000 0.3000 (  4754 PWs)   bands (ev):

    32.1394  32.1497  34.8520  34.8621  37.1236  37.1329  38.9719  38.9800
    39.2333  39.2419  40.2011  40.2065  40.4785  40.4923  40.9920  40.9990
    42.1908  42.1928  42.6581  42.6715  42.9836  42.9885  43.9854  43.9884
    44.2154  44.2274  44.4769  44.4843  44.7791  44.7874  45.0483  45.0490
    47.8997  47.9182  48.8912  48.9097  50.1992  50.2128  50.7078  50.7223
    51.5925  51.6078  51.7645  51.7786  52.0408  52.0479  52.7133  52.7169
    53.2420  53.2608  53.2761  53.2957  53.8476  53.8763  54.1244  54.1265
    54.3164  54.3254

          k = 0.5000-0.1000 0.3000 (  4754 PWs)   bands (ev):

    32.1394  32.1497  34.8520  34.8621  37.1236  37.1329  38.9722  38.9805
    39.2332  39.2413  40.2008  40.2064  40.4785  40.4924  40.9922  40.9991
    42.1908  42.1928  42.6581  42.6715  42.9836  42.9885  43.9855  43.9884
    44.2155  44.2273  44.4769  44.4843  44.7791  44.7873  45.0484  45.0489
    47.8996  47.9182  48.8912  48.9097  50.1992  50.2127  50.7080  50.7223
    51.5927  51.6080  51.7644  51.7785  52.0407  52.0473  52.7133  52.7167
    53.2444  53.2632  53.2757  53.2921  53.8476  53.8765  54.1244  54.1267
    54.3163  54.3255

          k =-0.5000 0.1000 0.5000 (  4740 PWs)   bands (ev):

    33.2788  33.2869  33.2962  33.3064  37.9943  38.0012  38.0096  38.0183
    39.8154  39.8213  39.8283  39.8361  41.4512  41.4589  41.4592  41.4655
    41.4682  41.4755  41.4788  41.4862  43.8087  43.8142  43.8155  43.8204
    44.8953  44.8978  44.9005  44.9031  44.9055  44.9096  44.9127  44.9145
    48.7925  48.8078  48.8179  48.8210  48.8229  48.8363  48.8431  48.8450
    51.7320  51.7425  51.7480  51.7568  53.3634  53.3746  53.3811  53.3896
    53.5686  53.5717  53.5806  53.5825  53.5929  53.5984  53.6066  53.6194
    54.1890  54.1934

          k =-0.5000 0.5000 0.1000 (  4740 PWs)   bands (ev):

    33.2855  33.2864  33.2957  33.3005  38.0001  38.0011  38.0092  38.0134
    39.8204  39.8211  39.8279  39.8314  41.4500  41.4522  41.4594  41.4674
    41.4698  41.4792  41.4814  41.4843  43.8107  43.8129  43.8170  43.8181
    44.8949  44.8960  44.9016  44.9050  44.9057  44.9102  44.9110  44.9145
    48.8054  48.8101  48.8167  48.8200  48.8226  48.8290  48.8387  48.8442
    51.7369  51.7412  51.7497  51.7513  53.3685  53.3740  53.3823  53.3849
    53.5629  53.5737  53.5822  53.5833  53.5914  53.6029  53.6047  53.6184
    54.1903  54.1917

          k =-0.3000-0.3000 0.3000 (  4788 PWs)   bands (ev):

    31.5540  34.3147  34.3245  34.3320  36.7610  36.7704  36.7776  38.8465
    39.7430  39.7475  39.7509  41.7434  41.7470  41.7511  41.8638  41.8730
    41.8768  41.8779  41.8917  41.9000  43.7899  43.7967  43.7984  43.8012
    43.8035  43.8085  43.8115  43.8179  43.8231  44.8373  44.8381  44.8391
    48.4442  48.4514  48.4588  49.7967  49.8019  49.8060  51.4777  51.4806
    51.4832  51.4880  51.4891  51.4935  52.3557  52.3615  52.3701  52.3761
    52.3792  52.3883  52.4248  52.4294  52.4342  53.1024  54.7232  54.7276
    54.7332  55.3095

          k =-0.3000 0.3000-0.3000 (  4788 PWs)   bands (ev):

    31.5540  34.3136  34.3238  34.3340  36.7599  36.7697  36.7794  38.8466
    39.7425  39.7472  39.7517  41.7404  41.7470  41.7541  41.8615  41.8711
    41.8797  41.8840  41.8906  41.8964  43.7923  43.7944  43.7975  43.7998
    43.8018  43.8042  43.8124  43.8206  43.8279  44.8371  44.8381  44.8393
    48.4387  48.4513  48.4642  49.7961  49.8017  49.8071  51.4752  51.4816
    51.4840  51.4880  51.4907  51.4921  52.3531  52.3645  52.3686  52.3760
    52.3800  52.3897  52.4229  52.4295  52.4359  53.1023  54.7222  54.7279
    54.7335  55.3076

          k = 0.3000-0.3000-0.3000 (  4788 PWs)   bands (ev):

    31.5540  34.3123  34.3263  34.3328  36.7585  36.7721  36.7782  38.8464
    39.7420  39.7483  39.7512  41.7394  41.7469  41.7550  41.8632  41.8717
    41.8791  41.8837  41.8895  41.8965  43.7875  43.7929  43.7965  43.8004
    43.8030  43.8074  43.8119  43.8210  43.8297  44.8374  44.8379  44.8395
    48.4374  48.4514  48.4658  49.7954  49.8029  49.8063  51.4750  51.4796
    51.4820  51.4879  51.4918  51.4961  52.3541  52.3612  52.3693  52.3709
    52.3823  52.3893  52.4225  52.4288  52.4401  53.1034  54.7224  54.7267
    54.7339  55.3076

          k =-0.3000 0.3000 0.5000 (  4758 PWs)   bands (ev):

    32.7220  32.7313  35.3404  35.3506  35.3516  35.3599  37.6235  37.6317
    40.6684  40.6733  40.6742  40.6782  41.0130  41.0256  42.6932  42.6965
    42.7085  42.7140  42.7167  42.7190  42.7263  42.7295  43.1403  43.1421
    43.1522  43.1543  44.4867  44.4907  44.4916  44.4968  44.9298  44.9383
    48.2776  48.2899  50.2945  50.3088  50.3157  50.3252  50.3359  50.3442
    50.3470  50.3633  51.5224  51.5281  51.5401  51.5438  51.9451  51.9509
    51.9563  51.9626  53.2588  53.2823  53.5680  53.5733  53.5775  53.5817
    55.2174  55.2280

          k =-0.5000-0.3000 0.3000 (  4758 PWs)   bands (ev):

    32.7215  32.7319  35.3409  35.3477  35.3513  35.3626  37.6230  37.6323
    40.6686  40.6717  40.6740  40.6792  41.0127  41.0266  42.6916  42.7042
    42.7062  42.7099  42.7171  42.7199  42.7236  42.7306  43.1400  43.1416
    43.1525  43.1555  44.4850  44.4905  44.4935  44.4967  44.9294  44.9386
    48.2769  48.2905  50.2928  50.3115  50.3178  50.3234  50.3353  50.3411
    50.3518  50.3610  51.5210  51.5263  51.5400  51.5471  51.9445  51.9559
    51.9563  51.9581  53.2577  53.2834  53.5671  53.5708  53.5791  53.5841
    55.2168  55.2283

          k = 0.5000-0.3000-0.3000 (  4758 PWs)   bands (ev):

    32.7215  32.7319  35.3399  35.3477  35.3513  35.3637  37.6229  37.6323
    40.6674  40.6710  40.6735  40.6818  41.0127  41.0265  42.6941  42.6976
    42.7075  42.7098  42.7185  42.7198  42.7277  42.7281  43.1390  43.1417
    43.1508  43.1579  44.4866  44.4898  44.4919  44.4974  44.9293  44.9386
    48.2770  48.2906  50.2956  50.3074  50.3173  50.3253  50.3328  50.3434
    50.3490  50.3640  51.5094  51.5320  51.5374  51.5557  51.9455  51.9521
    51.9551  51.9624  53.2576  53.2835  53.5628  53.5740  53.5770  53.5859
    55.2175  55.2283

          k =-0.3000-0.5000 0.3000 (  4758 PWs)   bands (ev):

    32.7253  32.7280  35.3394  35.3467  35.3570  35.3595  37.6264  37.6289
    40.6662  40.6720  40.6761  40.6797  41.0175  41.0215  42.7014  42.7023
    42.7045  42.7050  42.7212  42.7216  42.7232  42.7239  43.1413  43.1477
    43.1494  43.1510  44.4868  44.4894  44.4935  44.4960  44.9326  44.9354
    48.2818  48.2856  50.3069  50.3121  50.3142  50.3178  50.3362  50.3415
    50.3505  50.3556  51.5173  51.5301  51.5357  51.5513  51.9522  51.9528
    51.9545  51.9553  53.2669  53.2744  53.5677  53.5715  53.5781  53.5830
    55.2210  55.2240

          k =-0.3000 0.5000-0.3000 (  4758 PWs)   bands (ev):

    32.7253  32.7280  35.3401  35.3447  35.3578  35.3600  37.6264  37.6289
    40.6683  40.6705  40.6770  40.6781  41.0175  41.0214  42.6949  42.7035
    42.7047  42.7103  42.7170  42.7214  42.7229  42.7287  43.1432  43.1466
    43.1480  43.1513  44.4869  44.4885  44.4937  44.4966  44.9326  44.9354
    48.2819  48.2856  50.3012  50.3102  50.3143  50.3179  50.3419  50.3459
    50.3493  50.3536  51.5262  51.5324  51.5361  51.5400  51.9478  51.9542
    51.9550  51.9577  53.2669  53.2745  53.5713  53.5754  53.5759  53.5782
    55.2213  55.2241

          k =-0.5000 0.3000 0.5000 (  4772 PWs)   bands (ev):

    33.8191  33.8271  33.8364  33.8466  36.2860  36.2936  36.3025  36.3122
    41.5393  41.5431  41.5487  41.5539  41.9603  41.9683  41.9685  41.9747
    41.9776  41.9849  41.9884  41.9957  43.6108  43.6134  43.6137  43.6161
    43.9853  43.9919  43.9938  43.9987  44.0013  44.0079  44.0116  44.0175
    49.7246  49.7392  49.7486  49.7524  49.7533  49.7638  49.7738  49.7749
    51.0312  51.0411  51.0431  51.0522  51.8932  51.9050  51.9086  51.9187
    52.4033  52.4125  52.4158  52.4212  52.4274  52.4338  52.4419  52.4475
    56.0399  56.0478

          k =-0.5000 0.5000 0.3000 (  4772 PWs)   bands (ev):

    33.8258  33.8267  33.8359  33.8408  36.2923  36.2933  36.3021  36.3067
    41.5428  41.5431  41.5481  41.5507  41.9592  41.9612  41.9685  41.9767
    41.9794  41.9889  41.9907  41.9941  43.6116  43.6127  43.6144  43.6150
    43.9847  43.9853  43.9931  44.0006  44.0029  44.0117  44.0129  44.0169
    49.7315  49.7393  49.7465  49.7519  49.7537  49.7607  49.7691  49.7778
    51.0349  51.0383  51.0458  51.0485  51.8976  51.9023  51.9117  51.9141
    52.4021  52.4134  52.4164  52.4211  52.4266  52.4327  52.4405  52.4506
    56.0440  56.0473

     the Fermi energy is    52.7306 ev

!    total energy              =   -1130.03959595 Ry
     Harris-Foulkes estimate   =   -1130.03960015 Ry
     estimated scf accuracy    <       0.00000078 Ry

     total all-electron energy =    -15406.608618 Ry

     The total energy is the sum of the following terms:

     one-electron contribution =     469.19936859 Ry
     hartree contribution      =       1.74715035 Ry
     xc contribution           =    -138.29194538 Ry
     ewald contribution        =    -326.84024986 Ry
     one-center paw contrib.   =   -1135.85387548 Ry
     smearing contrib. (-TS)   =      -0.00004417 Ry

     convergence has been achieved in  29 iterations

     Forces acting on atoms (cartesian axes, Ry/au):

     atom    1 type  1   force =    -0.00249133   -0.00387996    0.00036592
     atom    2 type  1   force =    -0.00525511   -0.00146882    0.01307334
     atom    3 type  1   force =     0.01288319    0.00094227   -0.02094172
     atom    4 type  1   force =    -0.00701686    0.00286083   -0.02388381
     atom    5 type  1   force =    -0.01467113   -0.01309285    0.01700750
     atom    6 type  1   force =    -0.01091972    0.01097971   -0.00666718
     atom    7 type  1   force =    -0.01488521   -0.03190009    0.01281489
     atom    8 type  1   force =    -0.00662369    0.00972905   -0.00467535
     atom    9 type  1   force =     0.01916556    0.00518186   -0.00151196
     atom   10 type  1   force =    -0.00689999    0.00974469   -0.02749003
     atom   11 type  1   force =    -0.01020624   -0.01921789   -0.01304978
     atom   12 type  1   force =    -0.01602238   -0.00569038   -0.01018777
     atom   13 type  1   force =    -0.00453157   -0.01678223    0.00618276
     atom   14 type  1   force =    -0.00991154    0.02007644    0.01961272
     atom   15 type  1   force =    -0.01812937    0.01483096    0.01816827
     atom   16 type  1   force =     0.02441645    0.01189420    0.01485022
     atom   17 type  1   force =    -0.01795437   -0.00409878   -0.00155690
     atom   18 type  1   force =     0.01066540   -0.00408197    0.01544684
     atom   19 type  1   force =     0.02044129    0.01265711   -0.00396568
     atom   20 type  1   force =     0.00689358    0.02126331   -0.00931687
     atom   21 type  1   force =     0.00469205   -0.02257292    0.00997863
     atom   22 type  1   force =    -0.00204136    0.02334353    0.01195492
     atom   23 type  1   force =     0.01257806   -0.00922994   -0.01218922
     atom   24 type  1   force =     0.01447950    0.00540119    0.00425537
     atom   25 type  1   force =    -0.01118430   -0.00066688    0.00590383
     atom   26 type  1   force =     0.01206441   -0.00802137    0.00334744
     atom   27 type  1   force =    -0.00854752   -0.00759286    0.00359132
     atom   28 type  1   force =     0.00502999    0.00061487    0.00431728
     atom   29 type  1   force =     0.03874048   -0.01790443    0.00215548
     atom   30 type  1   force =    -0.00459313    0.00801836   -0.00059345
     atom   31 type  1   force =    -0.01005786   -0.00606549   -0.01738406
     atom   32 type  1   force =    -0.00010727    0.01472847   -0.00961295

     Total force =     0.128326     Total SCF correction =     0.001629


     Computing stress (Cartesian axis) and pressure

          total   stress  (Ry/bohr**3)                   (kbar)     P=59635.70
   0.40539430  -0.00000036   0.00000091      59635.55     -0.05      0.13
  -0.00000036   0.40539289  -0.00000141         -0.05  59635.34     -0.21
   0.00000091  -0.00000141   0.40539884          0.13     -0.21  59636.22


     Writing output data file fe_scf_fcc_2.save/
 
     init_run     :      2.22s CPU      2.40s WALL (       1 calls)
     electrons    :    110.10s CPU    114.72s WALL (       1 calls)
     forces       :      0.43s CPU      0.47s WALL (       1 calls)
     stress       :      0.83s CPU      0.84s WALL (       1 calls)

     Called by init_run:
     wfcinit      :      2.09s CPU      2.21s WALL (       1 calls)
     potinit      :      0.06s CPU      0.07s WALL (       1 calls)
     hinit0       :      0.06s CPU      0.11s WALL (       1 calls)

     Called by electrons:
     c_bands      :     98.67s CPU    102.27s WALL (      29 calls)
     sum_band     :      9.70s CPU     10.46s WALL (      29 calls)
     v_of_rho     :      0.07s CPU      0.08s WALL (      30 calls)
     newd         :      0.05s CPU      0.05s WALL (      30 calls)
     PAW_pot      :      1.63s CPU      1.65s WALL (      30 calls)
     mix_rho      :      0.03s CPU      0.04s WALL (      29 calls)

     Called by c_bands:
     init_us_2    :      0.72s CPU      0.74s WALL (    3843 calls)
     cegterg      :     95.16s CPU     98.69s WALL (    1827 calls)

     Called by sum_band:
     sum_band:bec :      0.14s CPU      0.14s WALL (    1827 calls)
     addusdens    :      0.03s CPU      0.03s WALL (      29 calls)

     Called by *egterg:
     h_psi        :     45.93s CPU     48.74s WALL (    6933 calls)
     s_psi        :      2.88s CPU      2.91s WALL (    6933 calls)
     g_psi        :      0.16s CPU      0.16s WALL (    5043 calls)
     cdiaghg      :     38.75s CPU     38.91s WALL (    6870 calls)

     Called by h_psi:
     h_psi:pot    :     45.78s CPU     48.58s WALL (    6933 calls)
     h_psi:calbec :      4.63s CPU      5.59s WALL (    6933 calls)
     vloc_psi     :     38.06s CPU     39.83s WALL (    6933 calls)
     add_vuspsi   :      3.06s CPU      3.14s WALL (    6933 calls)

     General routines
     calbec       :      6.51s CPU      7.91s WALL (    9075 calls)
     fft          :      0.11s CPU      0.18s WALL (     356 calls)
     ffts         :      0.01s CPU      0.01s WALL (      29 calls)
     fftw         :     42.97s CPU     44.97s WALL (  653646 calls)
 
     Parallel routines
     fft_scatt_xy :      3.05s CPU      3.20s WALL (  654031 calls)
     fft_scatt_yz :     28.90s CPU     30.30s WALL (  654031 calls)
 
     PWSCF        :  1m54.89s CPU     2m12.48s WALL

 
   This run was terminated on:   1:28:53  24Oct2019            

=------------------------------------------------------------------------------=
   JOB DONE.
=------------------------------------------------------------------------------=
