
     Program PWSCF v.6.4.1 starts on 24Feb2020 at 15:59:21 

     This program is part of the open-source Quantum ESPRESSO suite
     for quantum simulation of materials; please cite
         "P. Giannozzi et al., J. Phys.:Condens. Matter 21 395502 (2009);
         "P. Giannozzi et al., J. Phys.:Condens. Matter 29 465901 (2017);
          URL http://www.quantum-espresso.org", 
     in publications or presentations arising from this work. More details at
     http://www.quantum-espresso.org/quote

     Parallel version (MPI), running on     4 processors

     MPI processes distributed on     1 nodes
     R & G space division:  proc/nbgrp/npool/nimage =       4
     Reading input from /cloud/Code/python/py_pwscf_converge/src/example2/wd/runpwscf/file_10213.in
Warning: card &IONS ignored
Warning: card ION_DYNAMICS = 'BFGS', ignored
Warning: card / ignored
Warning: card &CELL ignored
Warning: card CELL_DYNAMICS = 'BFGS', ignored
Warning: card CELL_FACTOR = 2.0, ignored
Warning: card PRESS = 0.0, ignored
Warning: card / ignored

     Current dimensions of program PWSCF are:
     Max number of different atomic species (ntypx) = 10
     Max number of k-points (npk) =  40000
     Max angular momentum in pseudopotentials (lmaxx) =  3
               file Al.pbe-nl-kjpaw_psl.1.0.0.UPF: wavefunction(s)  3S 3P renormalized

     Subspace diagonalization in iterative solution of the eigenvalue problem:
     a serial algorithm will be used


     Parallelization info
     --------------------
     sticks:   dense  smooth     PW     G-vecs:    dense   smooth      PW
     Min         115     115     70                 1873     1873     893
     Max         117     117     72                 1875     1875     894
     Sum         465     465    285                 7497     7497    3575



     bravais-lattice index     =            0
     lattice parameter (alat)  =       7.6356  a.u.
     unit-cell volume          =     445.1737 (a.u.)^3
     number of atoms/cell      =            4
     number of atomic types    =            1
     number of electrons       =        12.00
     number of Kohn-Sham states=           10
     kinetic-energy cutoff     =      50.0000  Ry
     charge density cutoff     =     100.0000  Ry
     convergence threshold     =      1.0E-06
     mixing beta               =       0.1000
     number of iterations used =           10  TF        mixing
     Exchange-correlation      = SLA PW PBX PBC ( 1  4  3  4 0 0)

     celldm(1)=   7.635600  celldm(2)=   0.000000  celldm(3)=   0.000000
     celldm(4)=   0.000000  celldm(5)=   0.000000  celldm(6)=   0.000000

     crystal axes: (cart. coord. in units of alat)
               a(1) = (   1.000000   0.000000   0.000000 )  
               a(2) = (   0.000000   1.000000   0.000000 )  
               a(3) = (   0.000000   0.000000   1.000000 )  

     reciprocal axes: (cart. coord. in units 2 pi/alat)
               b(1) = (  1.000000  0.000000  0.000000 )  
               b(2) = (  0.000000  1.000000  0.000000 )  
               b(3) = (  0.000000  0.000000  1.000000 )  


     PseudoPot. # 1 for Al read from file:
     /opt/pp/Al.pbe-nl-kjpaw_psl.1.0.0.UPF
     MD5 check sum: 1b67f78b73fe58c7924490f171ce8a1e
     Pseudo is Projector augmented-wave + core cor, Zval =  3.0
     Generated using "atomic" code by A. Dal Corso v.6.3
     Shape of augmentation charge: PSQ
     Using radial grid of 1135 points,  4 beta functions with: 
                l(1) =   0
                l(2) =   0
                l(3) =   1
                l(4) =   1
     Q(r) pseudized with 0 coefficients 


     atomic species   valence    mass     pseudopotential
        Al             3.00    26.98200     Al( 1.00)

     No symmetry found



   Cartesian axes

     site n.     atom                  positions (alat units)
         1           Al  tau(   1) = (  -0.0000654   0.0000190   0.0001361  )
         2           Al  tau(   2) = (   0.5001592   0.4996200   0.0001406  )
         3           Al  tau(   3) = (   0.4998143   0.0000610   0.5005910  )
         4           Al  tau(   4) = (  -0.0000400   0.5004374   0.5003674  )

     number of k points=    14  Marzari-Vanderbilt smearing, width (Ry)=  0.0070
                       cart. coord. in units 2pi/alat
        k(    1) = (   0.1666667   0.1666667   0.1666667), wk =   0.1481481
        k(    2) = (   0.1666667   0.1666667  -0.5000000), wk =   0.1481481
        k(    3) = (   0.1666667  -0.5000000  -0.5000000), wk =   0.1481481
        k(    4) = (  -0.5000000  -0.5000000  -0.5000000), wk =   0.0740741
        k(    5) = (  -0.1666667  -0.1666667   0.1666667), wk =   0.1481481
        k(    6) = (  -0.1666667   0.1666667  -0.1666667), wk =   0.1481481
        k(    7) = (   0.1666667  -0.1666667  -0.1666667), wk =   0.1481481
        k(    8) = (  -0.1666667   0.1666667   0.5000000), wk =   0.1481481
        k(    9) = (  -0.5000000  -0.1666667   0.1666667), wk =   0.1481481
        k(   10) = (   0.5000000  -0.1666667  -0.1666667), wk =   0.1481481
        k(   11) = (  -0.1666667  -0.5000000   0.1666667), wk =   0.1481481
        k(   12) = (  -0.1666667   0.5000000  -0.1666667), wk =   0.1481481
        k(   13) = (  -0.5000000   0.1666667   0.5000000), wk =   0.1481481
        k(   14) = (  -0.5000000   0.5000000   0.1666667), wk =   0.1481481

     Dense  grid:     7497 G-vectors     FFT dimensions: (  25,  25,  25)

     Estimated max dynamical RAM per process >       4.85 MB

     Estimated total dynamical RAM >      19.40 MB

     Initial potential from superposition of free atoms

     starting charge   11.99084, renormalised to   12.00000
     Starting wfcs are   16 randomized atomic wfcs
     Checking if some PAW data can be deallocated... 

     total cpu time spent up to now is        0.7 secs

     Self-consistent Calculation

     iteration #  1     ecut=    50.00 Ry     beta= 0.10
     Davidson diagonalization with overlap
     ethr =  1.00E-02,  avg # of iterations =  2.9

     Threshold (ethr) on eigenvalues was too large:
     Diagonalizing with lowered threshold

     Davidson diagonalization with overlap
     ethr =  1.90E-04,  avg # of iterations =  2.3

     total cpu time spent up to now is        1.2 secs

     total energy              =    -158.04976376 Ry
     Harris-Foulkes estimate   =    -158.05050941 Ry
     estimated scf accuracy    <       0.02191770 Ry

     iteration #  2     ecut=    50.00 Ry     beta= 0.10
     Davidson diagonalization with overlap
     ethr =  1.83E-04,  avg # of iterations =  1.0

     total cpu time spent up to now is        1.4 secs

     total energy              =    -158.04432664 Ry
     Harris-Foulkes estimate   =    -158.04992143 Ry
     estimated scf accuracy    <       0.01888977 Ry

     iteration #  3     ecut=    50.00 Ry     beta= 0.10
     Davidson diagonalization with overlap
     ethr =  1.57E-04,  avg # of iterations =  1.0

     total cpu time spent up to now is        1.6 secs

     total energy              =    -158.04458199 Ry
     Harris-Foulkes estimate   =    -158.04463654 Ry
     estimated scf accuracy    <       0.00010581 Ry

     iteration #  4     ecut=    50.00 Ry     beta= 0.10
     Davidson diagonalization with overlap
     ethr =  8.82E-07,  avg # of iterations =  5.0

     total cpu time spent up to now is        1.9 secs

     total energy              =    -158.04462580 Ry
     Harris-Foulkes estimate   =    -158.04464497 Ry
     estimated scf accuracy    <       0.00005616 Ry

     iteration #  5     ecut=    50.00 Ry     beta= 0.10
     Davidson diagonalization with overlap
     ethr =  4.68E-07,  avg # of iterations =  1.6

     total cpu time spent up to now is        2.1 secs

     total energy              =    -158.04459149 Ry
     Harris-Foulkes estimate   =    -158.04462824 Ry
     estimated scf accuracy    <       0.00004161 Ry

     iteration #  6     ecut=    50.00 Ry     beta= 0.10
     Davidson diagonalization with overlap
     ethr =  3.47E-07,  avg # of iterations =  2.0

     total cpu time spent up to now is        2.3 secs

     total energy              =    -158.04459937 Ry
     Harris-Foulkes estimate   =    -158.04459975 Ry
     estimated scf accuracy    <       0.00000113 Ry

     iteration #  7     ecut=    50.00 Ry     beta= 0.10
     Davidson diagonalization with overlap
     ethr =  9.43E-09,  avg # of iterations =  1.6

     total cpu time spent up to now is        2.5 secs

     End of self-consistent calculation

          k = 0.1667 0.1667 0.1667 (  2659 PWs)   bands (ev):

    -2.4777   3.3898   3.3917   3.3937   8.9379   8.9421   8.9462   9.4199
     9.4203   9.4206

          k = 0.1667 0.1667-0.5000 (  2672 PWs)   bands (ev):

    -0.4908  -0.4826   5.1703   5.1706   5.4432   5.4438  10.9097  10.9133
    10.9136  10.9192

          k = 0.1667-0.5000-0.5000 (  2636 PWs)   bands (ev):

     1.4728   1.4733   1.4811   1.4820   7.2037   7.2043   7.2126   7.2135
    13.0182  13.0232

          k =-0.5000-0.5000-0.5000 (  2608 PWs)   bands (ev):

     3.3120   3.3121   3.3122   3.3124   3.5311   3.5319   3.5320   3.5323
    19.3164  19.3167

          k =-0.1667-0.1667 0.1667 (  2659 PWs)   bands (ev):

    -2.4777   3.3901   3.3918   3.3933   8.9387   8.9421   8.9454   9.4199
     9.4203   9.4206

          k =-0.1667 0.1667-0.1667 (  2659 PWs)   bands (ev):

    -2.4777   3.3906   3.3917   3.3929   8.9397   8.9420   8.9445   9.4200
     9.4203   9.4205

          k = 0.1667-0.1667-0.1667 (  2659 PWs)   bands (ev):

    -2.4777   3.3903   3.3918   3.3931   8.9391   8.9421   8.9450   9.4199
     9.4203   9.4206

          k =-0.1667 0.1667 0.5000 (  2672 PWs)   bands (ev):

    -0.4908  -0.4826   5.1704   5.1705   5.4432   5.4438  10.9098  10.9134
    10.9135  10.9192

          k =-0.5000-0.1667 0.1667 (  2672 PWs)   bands (ev):

    -0.4872  -0.4862   5.1704   5.1706   5.4432   5.4437  10.9122  10.9129
    10.9148  10.9160

          k = 0.5000-0.1667-0.1667 (  2672 PWs)   bands (ev):

    -0.4872  -0.4862   5.1704   5.1706   5.4432   5.4437  10.9130  10.9135
    10.9141  10.9152

          k =-0.1667-0.5000 0.1667 (  2672 PWs)   bands (ev):

    -0.4869  -0.4865   5.1705   5.1705   5.4433   5.4436  10.9121  10.9135
    10.9146  10.9158

          k =-0.1667 0.5000-0.1667 (  2672 PWs)   bands (ev):

    -0.4869  -0.4865   5.1704   5.1706   5.4434   5.4435  10.9119  10.9134
    10.9146  10.9161

          k =-0.5000 0.1667 0.5000 (  2636 PWs)   bands (ev):

     1.4727   1.4736   1.4809   1.4820   7.2037   7.2047   7.2123   7.2136
    13.0171  13.0226

          k =-0.5000 0.5000 0.1667 (  2636 PWs)   bands (ev):

     1.4757   1.4766   1.4780   1.4790   7.2067   7.2077   7.2094   7.2105
    13.0208  13.0214

     the Fermi energy is     8.8773 ev

!    total energy              =    -158.04459884 Ry
     Harris-Foulkes estimate   =    -158.04459944 Ry
     estimated scf accuracy    <       0.00000096 Ry

     total all-electron energy =     -1942.615721 Ry

     The total energy is the sum of the following terms:

     one-electron contribution =      12.62557723 Ry
     hartree contribution      =       0.02531462 Ry
     xc contribution           =     -10.36584891 Ry
     ewald contribution        =     -21.61650270 Ry
     one-center paw contrib.   =    -138.71213323 Ry
     smearing contrib. (-TS)   =      -0.00100585 Ry

     convergence has been achieved in   7 iterations

     Forces acting on atoms (cartesian axes, Ry/au):

     atom    1 type  1   force =     0.00007074   -0.00006492    0.00036799
     atom    2 type  1   force =    -0.00007992   -0.00005950    0.00038479
     atom    3 type  1   force =    -0.00007700    0.00006218   -0.00041866
     atom    4 type  1   force =     0.00008618    0.00006224   -0.00033412

     Total force =     0.000781     Total SCF correction =     0.000200
     SCF correction compared to forces is large: reduce conv_thr to get better values


     Computing stress (Cartesian axis) and pressure

          total   stress  (Ry/bohr**3)                   (kbar)     P=   -2.03
  -0.00001384  -0.00000005  -0.00000002         -2.04     -0.01     -0.00
  -0.00000005  -0.00001377  -0.00000002         -0.01     -2.03     -0.00
  -0.00000002  -0.00000002  -0.00001384         -0.00     -0.00     -2.04


     Writing output data file fe_scf_fcc_2.save/

     init_run     :      0.20s CPU      0.20s WALL (       1 calls)
     electrons    :      1.75s CPU      1.83s WALL (       1 calls)
     forces       :      0.05s CPU      0.05s WALL (       1 calls)
     stress       :      0.08s CPU      0.08s WALL (       1 calls)

     Called by init_run:
     wfcinit      :      0.10s CPU      0.10s WALL (       1 calls)
     potinit      :      0.05s CPU      0.05s WALL (       1 calls)
     hinit0       :      0.05s CPU      0.05s WALL (       1 calls)

     Called by electrons:
     c_bands      :      1.21s CPU      1.27s WALL (       8 calls)
     sum_band     :      0.16s CPU      0.18s WALL (       8 calls)
     v_of_rho     :      0.02s CPU      0.02s WALL (       8 calls)
     newd         :      0.01s CPU      0.01s WALL (       8 calls)
     PAW_pot      :      0.38s CPU      0.39s WALL (       8 calls)
     mix_rho      :      0.00s CPU      0.00s WALL (       8 calls)

     Called by c_bands:
     init_us_2    :      0.04s CPU      0.04s WALL (     266 calls)
     cegterg      :      1.14s CPU      1.19s WALL (     112 calls)

     Called by sum_band:
     sum_band:bec :      0.00s CPU      0.00s WALL (     112 calls)
     addusdens    :      0.01s CPU      0.01s WALL (       8 calls)

     Called by *egterg:
     h_psi        :      0.77s CPU      0.80s WALL (     371 calls)
     s_psi        :      0.11s CPU      0.11s WALL (     371 calls)
     g_psi        :      0.01s CPU      0.01s WALL (     245 calls)
     cdiaghg      :      0.05s CPU      0.06s WALL (     343 calls)

     Called by h_psi:
     h_psi:pot    :      0.76s CPU      0.80s WALL (     371 calls)
     h_psi:calbec :      0.15s CPU      0.16s WALL (     371 calls)
     vloc_psi     :      0.51s CPU      0.53s WALL (     371 calls)
     add_vuspsi   :      0.11s CPU      0.11s WALL (     371 calls)

     General routines
     calbec       :      0.23s CPU      0.25s WALL (     553 calls)
     fft          :      0.01s CPU      0.01s WALL (     114 calls)
     ffts         :      0.00s CPU      0.00s WALL (       8 calls)
     fftw         :      0.55s CPU      0.57s WALL (    7194 calls)

     Parallel routines
     fft_scatt_xy :      0.06s CPU      0.07s WALL (    7316 calls)
     fft_scatt_yz :      0.27s CPU      0.28s WALL (    7316 calls)

     PWSCF        :      2.56s CPU      2.68s WALL


   This run was terminated on:  15:59:23  24Feb2020            

=------------------------------------------------------------------------------=
   JOB DONE.
=------------------------------------------------------------------------------=
