
     Program PWSCF v.6.3 starts on 25Oct2019 at 14:54:32 

     This program is part of the open-source Quantum ESPRESSO suite
     for quantum simulation of materials; please cite
         "P. Giannozzi et al., J. Phys.:Condens. Matter 21 395502 (2009);
         "P. Giannozzi et al., J. Phys.:Condens. Matter 29 465901 (2017);
          URL http://www.quantum-espresso.org", 
     in publications or presentations arising from this work. More details at
     http://www.quantum-espresso.org/quote

     Parallel version (MPI & OpenMP), running on      20 processor cores
     Number of MPI processes:                20
     Threads/MPI process:                     1

     MPI processes distributed on     1 nodes
     R & G space division:  proc/nbgrp/npool/nimage =      20
     Reading input from /rds/homes/b/bxp912/jobs/20191025_al/wd/runpwscf/file_10244.in
Warning: card &IONS ignored
Warning: card ION_DYNAMICS = 'BFGS', ignored
Warning: card / ignored
Warning: card &CELL ignored
Warning: card CELL_DYNAMICS = 'BFGS', ignored
Warning: card CELL_FACTOR = 2.0, ignored
Warning: card PRESS = 0.0, ignored
Warning: card / ignored

     Current dimensions of program PWSCF are:
     Max number of different atomic species (ntypx) = 10
     Max number of k-points (npk) =  40000
     Max angular momentum in pseudopotentials (lmaxx) =  3
     Message from routine read_upf::
     Pseudo file /rds/homes/b/bxp912/pp/Al.pbe-nl-kjpaw_psl.1.0.0.UPF has been successfully fixed on the fly.
To avoid this message in the future you can permanently fix 
 your pseudo files following instructions given in: 
https://gitlab.com/QEF/q-e/blob/master/upftools/how_to_fix_upf.md
               file Al.pbe-nl-kjpaw_psl.1.0.0.UPF: wavefunction(s)  3S 3P renormalized

     Subspace diagonalization in iterative solution of the eigenvalue problem:
     a serial algorithm will be used

 
     Parallelization info
     --------------------
     sticks:   dense  smooth     PW     G-vecs:    dense   smooth      PW
     Min          52      52     20                 1262     1262     300
     Max          53      53     21                 1265     1265     303
     Sum        1041    1041    401                25269    25269    6031
 


     bravais-lattice index     =            0
     lattice parameter (alat)  =       8.0800  a.u.
     unit-cell volume          =     527.5141 (a.u.)^3
     number of atoms/cell      =           32
     number of atomic types    =            1
     number of electrons       =        96.00
     number of Kohn-Sham states=           58
     kinetic-energy cutoff     =      66.0000  Ry
     charge density cutoff     =     200.0000  Ry
     convergence threshold     =      1.0E-06
     mixing beta               =       0.1000
     number of iterations used =           10  TF        mixing
     Exchange-correlation      = SLA PW PBX PBC ( 1  4  3  4 0 0)

     celldm(1)=   8.080000  celldm(2)=   0.000000  celldm(3)=   0.000000
     celldm(4)=   0.000000  celldm(5)=   0.000000  celldm(6)=   0.000000

     crystal axes: (cart. coord. in units of alat)
               a(1) = (   1.000000   0.000000   0.000000 )  
               a(2) = (   0.000000   1.000000   0.000000 )  
               a(3) = (   0.000000   0.000000   1.000000 )  

     reciprocal axes: (cart. coord. in units 2 pi/alat)
               b(1) = (  1.000000  0.000000  0.000000 )  
               b(2) = (  0.000000  1.000000  0.000000 )  
               b(3) = (  0.000000  0.000000  1.000000 )  


     PseudoPot. # 1 for Al read from file:
     /rds/homes/b/bxp912/pp/Al.pbe-nl-kjpaw_psl.1.0.0.UPF
     MD5 check sum: 339dbea23cf3ab9a065ad45c0f9085d7
     Pseudo is Projector augmented-wave + core cor, Zval =  3.0
     Generated using "atomic" code by A. Dal Corso v.5.1
     Shape of augmentation charge: PSQ
     Using radial grid of 1135 points,  4 beta functions with: 
                l(1) =   0
                l(2) =   0
                l(3) =   1
                l(4) =   1
     Q(r) pseudized with 0 coefficients 


     atomic species   valence    mass     pseudopotential
        Al             3.00    26.98200     Al( 1.00)

     No symmetry found



   Cartesian axes

     site n.     atom                  positions (alat units)
         1           Al  tau(   1) = (  -0.0000618   0.0000180   0.0001286  )
         2           Al  tau(   2) = (   0.2501504   0.2496409   0.0001329  )
         3           Al  tau(   3) = (   0.2498245   0.0000576   0.2505585  )
         4           Al  tau(   4) = (  -0.0000378   0.2504134   0.2503472  )
         5           Al  tau(   5) = (   0.0004835   0.0004765   0.4997751  )
         6           Al  tau(   6) = (   0.2502257   0.2496836   0.5000068  )
         7           Al  tau(   7) = (   0.2500525   0.0002908   0.7497884  )
         8           Al  tau(   8) = (   0.0001038   0.2502148   0.7503971  )
         9           Al  tau(   9) = (   0.0004488   0.5002037  -0.0000292  )
        10           Al  tau(  10) = (   0.2502638   0.7503330   0.0007661  )
        11           Al  tau(  11) = (   0.2503574   0.5002057   0.2504745  )
        12           Al  tau(  12) = (   0.0000725   0.7500861   0.2500479  )
        13           Al  tau(  13) = (   0.0002082   0.5002952   0.5001871  )
        14           Al  tau(  14) = (   0.2499320   0.7501195   0.4997555  )
        15           Al  tau(  15) = (   0.2506361   0.4996019   0.7494255  )
        16           Al  tau(  16) = (  -0.0006199   0.7494434   0.7499870  )
        17           Al  tau(  17) = (   0.5003850  -0.0001898  -0.0000732  )
        18           Al  tau(  18) = (   0.7498343   0.2501778  -0.0004407  )
        19           Al  tau(  19) = (   0.7493109  -0.0001812   0.2501458  )
        20           Al  tau(  20) = (   0.4999530   0.2499270   0.2496819  )
        21           Al  tau(  21) = (   0.4998509   0.0005536   0.4999482  )
        22           Al  tau(  22) = (   0.7501292   0.2494251   0.4999098  )
        23           Al  tau(  23) = (   0.7500676  -0.0001298   0.7500485  )
        24           Al  tau(  24) = (   0.5000215   0.2497853   0.7499902  )
        25           Al  tau(  25) = (   0.4997214   0.5002185  -0.0004144  )
        26           Al  tau(  26) = (   0.7495697   0.7501849   0.0005172  )
        27           Al  tau(  27) = (   0.7501903   0.4996254   0.2498983  )
        28           Al  tau(  28) = (   0.5001659   0.7496046   0.2503955  )
        29           Al  tau(  29) = (   0.4993878   0.5001941   0.5000764  )
        30           Al  tau(  30) = (   0.7503133   0.7499759   0.4997253  )
        31           Al  tau(  31) = (   0.7499001   0.5000179   0.7502634  )
        32           Al  tau(  32) = (   0.5000268   0.7499029   0.7498445  )

     number of k points=    63  Marzari-Vanderbilt smearing, width (Ry)=  0.0070
                       cart. coord. in units 2pi/alat
        k(    1) = (   0.1000000   0.1000000   0.1000000), wk =   0.0320000
        k(    2) = (   0.1000000   0.1000000   0.3000000), wk =   0.0320000
        k(    3) = (   0.1000000   0.1000000  -0.5000000), wk =   0.0320000
        k(    4) = (   0.1000000   0.3000000   0.3000000), wk =   0.0320000
        k(    5) = (   0.1000000   0.3000000  -0.5000000), wk =   0.0320000
        k(    6) = (   0.1000000  -0.5000000  -0.5000000), wk =   0.0320000
        k(    7) = (   0.3000000   0.3000000   0.3000000), wk =   0.0320000
        k(    8) = (   0.3000000   0.3000000  -0.5000000), wk =   0.0320000
        k(    9) = (   0.3000000  -0.5000000  -0.5000000), wk =   0.0320000
        k(   10) = (  -0.5000000  -0.5000000  -0.5000000), wk =   0.0160000
        k(   11) = (  -0.1000000  -0.1000000   0.1000000), wk =   0.0320000
        k(   12) = (  -0.1000000   0.1000000  -0.1000000), wk =   0.0320000
        k(   13) = (   0.1000000  -0.1000000  -0.1000000), wk =   0.0320000
        k(   14) = (  -0.1000000  -0.1000000   0.3000000), wk =   0.0320000
        k(   15) = (  -0.1000000   0.1000000  -0.3000000), wk =   0.0320000
        k(   16) = (   0.1000000  -0.1000000  -0.3000000), wk =   0.0320000
        k(   17) = (   0.3000000  -0.1000000   0.1000000), wk =   0.0320000
        k(   18) = (  -0.3000000  -0.1000000  -0.1000000), wk =   0.0320000
        k(   19) = (   0.3000000   0.1000000  -0.1000000), wk =   0.0320000
        k(   20) = (  -0.3000000   0.1000000   0.1000000), wk =   0.0320000
        k(   21) = (  -0.1000000   0.3000000   0.1000000), wk =   0.0320000
        k(   22) = (  -0.1000000  -0.3000000  -0.1000000), wk =   0.0320000
        k(   23) = (   0.1000000   0.3000000  -0.1000000), wk =   0.0320000
        k(   24) = (   0.1000000  -0.3000000   0.1000000), wk =   0.0320000
        k(   25) = (  -0.1000000   0.1000000   0.5000000), wk =   0.0320000
        k(   26) = (  -0.5000000  -0.1000000   0.1000000), wk =   0.0320000
        k(   27) = (   0.5000000  -0.1000000  -0.1000000), wk =   0.0320000
        k(   28) = (  -0.1000000  -0.5000000   0.1000000), wk =   0.0320000
        k(   29) = (  -0.1000000   0.5000000  -0.1000000), wk =   0.0320000
        k(   30) = (  -0.1000000  -0.3000000   0.3000000), wk =   0.0320000
        k(   31) = (  -0.1000000   0.3000000  -0.3000000), wk =   0.0320000
        k(   32) = (   0.1000000  -0.3000000  -0.3000000), wk =   0.0320000
        k(   33) = (   0.3000000   0.1000000  -0.3000000), wk =   0.0320000
        k(   34) = (  -0.3000000  -0.1000000  -0.3000000), wk =   0.0320000
        k(   35) = (   0.3000000  -0.1000000   0.3000000), wk =   0.0320000
        k(   36) = (  -0.3000000   0.1000000   0.3000000), wk =   0.0320000
        k(   37) = (   0.3000000  -0.3000000   0.1000000), wk =   0.0320000
        k(   38) = (  -0.3000000  -0.3000000  -0.1000000), wk =   0.0320000
        k(   39) = (   0.3000000   0.3000000  -0.1000000), wk =   0.0320000
        k(   40) = (  -0.3000000   0.3000000   0.1000000), wk =   0.0320000
        k(   41) = (  -0.1000000   0.3000000   0.5000000), wk =   0.0320000
        k(   42) = (   0.3000000   0.1000000   0.5000000), wk =   0.0320000
        k(   43) = (   0.3000000  -0.1000000  -0.5000000), wk =   0.0320000
        k(   44) = (  -0.5000000  -0.3000000   0.1000000), wk =   0.0320000
        k(   45) = (   0.5000000  -0.3000000  -0.1000000), wk =   0.0320000
        k(   46) = (  -0.1000000  -0.5000000   0.3000000), wk =   0.0320000
        k(   47) = (  -0.1000000   0.5000000  -0.3000000), wk =   0.0320000
        k(   48) = (   0.3000000  -0.5000000   0.1000000), wk =   0.0320000
        k(   49) = (   0.3000000   0.5000000  -0.1000000), wk =   0.0320000
        k(   50) = (  -0.5000000   0.1000000   0.3000000), wk =   0.0320000
        k(   51) = (   0.5000000  -0.1000000   0.3000000), wk =   0.0320000
        k(   52) = (  -0.5000000   0.1000000   0.5000000), wk =   0.0320000
        k(   53) = (  -0.5000000   0.5000000   0.1000000), wk =   0.0320000
        k(   54) = (  -0.3000000  -0.3000000   0.3000000), wk =   0.0320000
        k(   55) = (  -0.3000000   0.3000000  -0.3000000), wk =   0.0320000
        k(   56) = (   0.3000000  -0.3000000  -0.3000000), wk =   0.0320000
        k(   57) = (  -0.3000000   0.3000000   0.5000000), wk =   0.0320000
        k(   58) = (  -0.5000000  -0.3000000   0.3000000), wk =   0.0320000
        k(   59) = (   0.5000000  -0.3000000  -0.3000000), wk =   0.0320000
        k(   60) = (  -0.3000000  -0.5000000   0.3000000), wk =   0.0320000
        k(   61) = (  -0.3000000   0.5000000  -0.3000000), wk =   0.0320000
        k(   62) = (  -0.5000000   0.3000000   0.5000000), wk =   0.0320000
        k(   63) = (  -0.5000000   0.5000000   0.3000000), wk =   0.0320000

     Dense  grid:    25269 G-vectors     FFT dimensions: (  40,  40,  40)

     Estimated max dynamical RAM per process >      20.87 MB

     Estimated total dynamical RAM >     417.35 MB

     Initial potential from superposition of free atoms

     starting charge   95.92671, renormalised to   96.00000
     Starting wfcs are  128 randomized atomic wfcs
     Checking if some PAW data can be deallocated... 

     total cpu time spent up to now is        3.7 secs

     Self-consistent Calculation

     iteration #  1     ecut=    66.00 Ry     beta= 0.10
     Davidson diagonalization with overlap
     ethr =  1.00E-02,  avg # of iterations =  5.0

     total cpu time spent up to now is       11.2 secs

     total energy              =   -1133.16266946 Ry
     Harris-Foulkes estimate   =   -1134.40978355 Ry
     estimated scf accuracy    <       1.41643755 Ry

     iteration #  2     ecut=    66.00 Ry     beta= 0.10
     Davidson diagonalization with overlap
     ethr =  1.48E-03,  avg # of iterations =  3.7

     total cpu time spent up to now is       15.9 secs

     total energy              =   -1129.64315675 Ry
     Harris-Foulkes estimate   =   -1133.29562793 Ry
     estimated scf accuracy    <       1.22745570 Ry

     iteration #  3     ecut=    66.00 Ry     beta= 0.10
     Davidson diagonalization with overlap
     ethr =  1.28E-03,  avg # of iterations =  3.9

     total cpu time spent up to now is       22.0 secs

     total energy              =   -1130.28098269 Ry
     Harris-Foulkes estimate   =   -1130.70960939 Ry
     estimated scf accuracy    <       0.21394801 Ry

     iteration #  4     ecut=    66.00 Ry     beta= 0.10
     Davidson diagonalization with overlap
     ethr =  2.23E-04,  avg # of iterations =  2.7

     total cpu time spent up to now is       25.6 secs

     total energy              =   -1130.00512901 Ry
     Harris-Foulkes estimate   =   -1130.29619610 Ry
     estimated scf accuracy    <       0.13886095 Ry

     iteration #  5     ecut=    66.00 Ry     beta= 0.10
     Davidson diagonalization with overlap
     ethr =  1.45E-04,  avg # of iterations =  2.8

     total cpu time spent up to now is       29.5 secs

     total energy              =   -1130.02947969 Ry
     Harris-Foulkes estimate   =   -1130.02588691 Ry
     estimated scf accuracy    <       0.01424191 Ry

     iteration #  6     ecut=    66.00 Ry     beta= 0.10
     Davidson diagonalization with overlap
     ethr =  1.48E-05,  avg # of iterations =  8.7

     total cpu time spent up to now is       41.0 secs

     total energy              =   -1130.05370902 Ry
     Harris-Foulkes estimate   =   -1130.05418584 Ry
     estimated scf accuracy    <       0.01247274 Ry

     iteration #  7     ecut=    66.00 Ry     beta= 0.10
     Davidson diagonalization with overlap
     ethr =  1.30E-05,  avg # of iterations =  1.0

     total cpu time spent up to now is       44.2 secs

     total energy              =   -1130.04260696 Ry
     Harris-Foulkes estimate   =   -1130.05375097 Ry
     estimated scf accuracy    <       0.01297199 Ry

     iteration #  8     ecut=    66.00 Ry     beta= 0.10
     Davidson diagonalization with overlap
     ethr =  1.30E-05,  avg # of iterations =  1.0

     total cpu time spent up to now is       47.0 secs

     total energy              =   -1130.04369102 Ry
     Harris-Foulkes estimate   =   -1130.04349411 Ry
     estimated scf accuracy    <       0.00154656 Ry

     iteration #  9     ecut=    66.00 Ry     beta= 0.10
     Davidson diagonalization with overlap
     ethr =  1.61E-06,  avg # of iterations =  6.7

     total cpu time spent up to now is       53.3 secs

     total energy              =   -1130.04334649 Ry
     Harris-Foulkes estimate   =   -1130.04387095 Ry
     estimated scf accuracy    <       0.00079497 Ry

     iteration # 10     ecut=    66.00 Ry     beta= 0.10
     Davidson diagonalization with overlap
     c_bands:  1 eigenvalues not converged
     ethr =  8.28E-07,  avg # of iterations =  3.0

     total cpu time spent up to now is       57.1 secs

     total energy              =   -1130.04210666 Ry
     Harris-Foulkes estimate   =   -1130.04339542 Ry
     estimated scf accuracy    <       0.00071853 Ry

     iteration # 11     ecut=    66.00 Ry     beta= 0.10
     Davidson diagonalization with overlap
     ethr =  7.48E-07,  avg # of iterations =  1.0

     total cpu time spent up to now is       59.9 secs

     total energy              =   -1130.04156347 Ry
     Harris-Foulkes estimate   =   -1130.04213615 Ry
     estimated scf accuracy    <       0.00090491 Ry

     iteration # 12     ecut=    66.00 Ry     beta= 0.10
     Davidson diagonalization with overlap
     ethr =  7.48E-07,  avg # of iterations =  4.3

     total cpu time spent up to now is       64.9 secs

     total energy              =   -1130.04234481 Ry
     Harris-Foulkes estimate   =   -1130.04182256 Ry
     estimated scf accuracy    <       0.00309147 Ry

     iteration # 13     ecut=    66.00 Ry     beta= 0.10
     Davidson diagonalization with overlap
     ethr =  7.48E-07,  avg # of iterations =  1.0

     total cpu time spent up to now is       67.7 secs

     total energy              =   -1130.04273726 Ry
     Harris-Foulkes estimate   =   -1130.04238725 Ry
     estimated scf accuracy    <       0.00153033 Ry

     iteration # 14     ecut=    66.00 Ry     beta= 0.10
     Davidson diagonalization with overlap
     ethr =  7.48E-07,  avg # of iterations =  1.0

     total cpu time spent up to now is       70.5 secs

     total energy              =   -1130.04096690 Ry
     Harris-Foulkes estimate   =   -1130.04274572 Ry
     estimated scf accuracy    <       0.00149990 Ry

     iteration # 15     ecut=    66.00 Ry     beta= 0.10
     Davidson diagonalization with overlap
     ethr =  7.48E-07,  avg # of iterations =  2.0

     total cpu time spent up to now is       74.3 secs

     total energy              =   -1130.04078500 Ry
     Harris-Foulkes estimate   =   -1130.04108603 Ry
     estimated scf accuracy    <       0.00260902 Ry

     iteration # 16     ecut=    66.00 Ry     beta= 0.10
     Davidson diagonalization with overlap
     ethr =  7.48E-07,  avg # of iterations =  2.4

     total cpu time spent up to now is       77.7 secs

     total energy              =   -1130.04080917 Ry
     Harris-Foulkes estimate   =   -1130.04083598 Ry
     estimated scf accuracy    <       0.00178707 Ry

     iteration # 17     ecut=    66.00 Ry     beta= 0.10
     Davidson diagonalization with overlap
     ethr =  7.48E-07,  avg # of iterations =  1.0

     total cpu time spent up to now is       80.5 secs

     total energy              =   -1130.04079176 Ry
     Harris-Foulkes estimate   =   -1130.04081579 Ry
     estimated scf accuracy    <       0.00156757 Ry

     iteration # 18     ecut=    66.00 Ry     beta= 0.10
     Davidson diagonalization with overlap
     ethr =  7.48E-07,  avg # of iterations =  1.0

     total cpu time spent up to now is       83.3 secs

     total energy              =   -1130.04073425 Ry
     Harris-Foulkes estimate   =   -1130.04079518 Ry
     estimated scf accuracy    <       0.00131487 Ry

     iteration # 19     ecut=    66.00 Ry     beta= 0.10
     Davidson diagonalization with overlap
     ethr =  7.48E-07,  avg # of iterations =  1.0

     total cpu time spent up to now is       86.1 secs

     total energy              =   -1130.04063685 Ry
     Harris-Foulkes estimate   =   -1130.04074337 Ry
     estimated scf accuracy    <       0.00074239 Ry

     iteration # 20     ecut=    66.00 Ry     beta= 0.10
     Davidson diagonalization with overlap
     ethr =  7.48E-07,  avg # of iterations =  3.0

     total cpu time spent up to now is       89.8 secs

     total energy              =   -1130.04071623 Ry
     Harris-Foulkes estimate   =   -1130.04069752 Ry
     estimated scf accuracy    <       0.00000782 Ry

     iteration # 21     ecut=    66.00 Ry     beta= 0.10
     Davidson diagonalization with overlap
     c_bands:  1 eigenvalues not converged
     c_bands:  1 eigenvalues not converged
     c_bands:  1 eigenvalues not converged
     c_bands:  1 eigenvalues not converged
     c_bands:  1 eigenvalues not converged
     c_bands:  1 eigenvalues not converged
     c_bands:  1 eigenvalues not converged
     c_bands:  1 eigenvalues not converged
     ethr =  8.14E-09,  avg # of iterations =  8.4

     total cpu time spent up to now is       98.8 secs

     total energy              =   -1130.04073666 Ry
     Harris-Foulkes estimate   =   -1130.04073522 Ry
     estimated scf accuracy    <       0.00000769 Ry

     iteration # 22     ecut=    66.00 Ry     beta= 0.10
     Davidson diagonalization with overlap
     ethr =  8.01E-09,  avg # of iterations =  4.2

     total cpu time spent up to now is      104.2 secs

     total energy              =   -1130.04071824 Ry
     Harris-Foulkes estimate   =   -1130.04073995 Ry
     estimated scf accuracy    <       0.00001888 Ry

     iteration # 23     ecut=    66.00 Ry     beta= 0.10
     Davidson diagonalization with overlap
     ethr =  8.01E-09,  avg # of iterations =  2.6

     total cpu time spent up to now is      108.1 secs

     total energy              =   -1130.04070971 Ry
     Harris-Foulkes estimate   =   -1130.04071985 Ry
     estimated scf accuracy    <       0.00000548 Ry

     iteration # 24     ecut=    66.00 Ry     beta= 0.10
     Davidson diagonalization with overlap
     ethr =  5.71E-09,  avg # of iterations =  4.1

     total cpu time spent up to now is      114.4 secs

     total energy              =   -1130.04071128 Ry
     Harris-Foulkes estimate   =   -1130.04071314 Ry
     estimated scf accuracy    <       0.00000142 Ry

     iteration # 25     ecut=    66.00 Ry     beta= 0.10
     Davidson diagonalization with overlap
     ethr =  1.48E-09,  avg # of iterations =  1.4

     total cpu time spent up to now is      117.3 secs

     total energy              =   -1130.04071197 Ry
     Harris-Foulkes estimate   =   -1130.04071135 Ry
     estimated scf accuracy    <       0.00000208 Ry

     iteration # 26     ecut=    66.00 Ry     beta= 0.10
     Davidson diagonalization with overlap
     ethr =  1.48E-09,  avg # of iterations =  1.0

     total cpu time spent up to now is      120.1 secs

     total energy              =   -1130.04071187 Ry
     Harris-Foulkes estimate   =   -1130.04071199 Ry
     estimated scf accuracy    <       0.00000144 Ry

     iteration # 27     ecut=    66.00 Ry     beta= 0.10
     Davidson diagonalization with overlap
     ethr =  1.48E-09,  avg # of iterations =  1.1

     total cpu time spent up to now is      123.0 secs

     total energy              =   -1130.04071090 Ry
     Harris-Foulkes estimate   =   -1130.04071194 Ry
     estimated scf accuracy    <       0.00000301 Ry

     iteration # 28     ecut=    66.00 Ry     beta= 0.10
     Davidson diagonalization with overlap
     ethr =  1.48E-09,  avg # of iterations =  1.0

     total cpu time spent up to now is      125.9 secs

     total energy              =   -1130.04070965 Ry
     Harris-Foulkes estimate   =   -1130.04071094 Ry
     estimated scf accuracy    <       0.00000225 Ry

     iteration # 29     ecut=    66.00 Ry     beta= 0.10
     Davidson diagonalization with overlap
     ethr =  1.48E-09,  avg # of iterations =  2.0

     total cpu time spent up to now is      129.1 secs

     total energy              =   -1130.04071068 Ry
     Harris-Foulkes estimate   =   -1130.04070975 Ry
     estimated scf accuracy    <       0.00000226 Ry

     iteration # 30     ecut=    66.00 Ry     beta= 0.10
     Davidson diagonalization with overlap
     ethr =  1.48E-09,  avg # of iterations =  3.5

     total cpu time spent up to now is      133.6 secs

     total energy              =   -1130.04071048 Ry
     Harris-Foulkes estimate   =   -1130.04071096 Ry
     estimated scf accuracy    <       0.00000251 Ry

     iteration # 31     ecut=    66.00 Ry     beta= 0.10
     Davidson diagonalization with overlap
     ethr =  1.48E-09,  avg # of iterations =  1.0

     total cpu time spent up to now is      136.3 secs

     total energy              =   -1130.04071065 Ry
     Harris-Foulkes estimate   =   -1130.04071051 Ry
     estimated scf accuracy    <       0.00000153 Ry

     iteration # 32     ecut=    66.00 Ry     beta= 0.10
     Davidson diagonalization with overlap
     ethr =  1.48E-09,  avg # of iterations =  3.0

     total cpu time spent up to now is      140.2 secs

     End of self-consistent calculation

          k = 0.1000 0.1000 0.1000 (  4785 PWs)   bands (ev):

    29.6299  35.1258  35.1372  35.1465  37.0426  37.0520  37.0597  39.6246
    39.6353  39.6439  40.8555  40.8579  40.8601  41.2615  41.2679  41.2699
    41.2755  41.2859  41.2866  42.7009  42.7083  42.7145  43.0660  44.2845
    44.2875  44.2933  44.2970  44.3025  44.3086  44.6177  44.6289  44.6396
    46.2183  46.2298  46.2411  47.7226  52.1399  52.1422  52.1448  52.7697
    52.7710  52.7729  52.7738  52.7757  52.7773  53.4257  53.4274  53.4295
    53.4319  53.4334  53.4352  53.7650  53.7663  53.7670  54.4544  54.4560
    54.4572  54.7127

          k = 0.1000 0.1000 0.3000 (  4773 PWs)   bands (ev):

    30.2936  33.2218  35.6661  35.6706  37.5656  37.5694  38.0411  38.0453
    38.7224  39.8177  39.8219  40.0133  40.6105  41.4475  41.4496  41.6573
    41.6645  41.7685  42.7440  42.7469  43.1175  43.4015  43.4114  43.5619
    43.5631  43.8770  43.8786  44.2335  44.2347  44.4881  44.4908  44.9393
    46.4894  47.9450  47.9561  49.4700  51.1140  52.1965  52.1989  52.3196
    52.3236  52.3643  52.3721  52.5275  52.5287  52.5794  52.5803  52.7710
    52.8531  52.8534  53.6369  53.6400  53.7507  53.7533  53.8363  53.9462
    53.9480  54.1369

          k = 0.1000 0.1000-0.5000 (  4804 PWs)   bands (ev):

    31.5359  31.5454  36.6648  36.6712  36.6767  36.6798  38.5248  38.5299
    38.5343  38.5376  39.9308  39.9433  40.7346  40.7413  42.3855  42.3931
    42.3957  42.4003  42.4595  42.4608  42.4633  42.4659  43.7772  43.7794
    43.7888  43.7918  43.8863  43.8899  44.4836  44.4853  44.4930  44.4950
    48.6371  48.6550  49.9909  50.0036  50.0139  50.0209  51.5087  51.5241
    52.2528  52.2595  52.2672  52.2746  52.3209  52.3230  52.3250  52.3270
    52.8343  52.8484  52.8560  52.8671  54.0169  54.0439  54.0781  54.0787
    54.0795  54.0808

          k = 0.1000 0.3000 0.3000 (  4792 PWs)   bands (ev):

    30.9362  33.7807  33.7942  36.1725  36.3283  38.0575  38.4456  38.4576
    39.2432  39.2493  40.2197  40.2306  40.3617  41.1820  41.1919  41.4342
    41.4480  42.0209  42.0764  43.1769  43.1829  43.3360  43.3446  43.9718
    43.9754  44.3086  44.3123  44.5353  44.5447  44.5482  45.0553  45.0708
    46.8537  46.8698  49.6504  50.2247  50.2300  51.1720  51.1759  51.2067
    51.2179  51.2528  52.0570  52.0881  52.0950  52.1211  52.6826  52.6838
    52.7409  52.7522  53.7610  53.7705  53.9922  53.9929  54.2541  54.3087
    54.3299  54.5374

          k = 0.1000 0.3000-0.5000 (  4754 PWs)   bands (ev):

    32.1424  32.1520  34.8550  34.8643  37.1265  37.1351  38.9751  38.9818
    39.2358  39.2442  40.2033  40.2084  40.4805  40.4931  40.9946  41.0012
    42.1921  42.1937  42.6603  42.6725  42.9847  42.9890  43.9878  43.9908
    44.2176  44.2285  44.4786  44.4852  44.7812  44.7888  45.0507  45.0511
    47.9019  47.9188  48.8933  48.9104  50.2013  50.2135  50.7102  50.7230
    51.5936  51.6092  51.7671  51.7790  52.0414  52.0481  52.7140  52.7178
    53.2504  53.2653  53.2746  53.2892  53.8497  53.8750  54.1273  54.1291
    54.3189  54.3267

          k = 0.1000-0.5000-0.5000 (  4740 PWs)   bands (ev):

    33.2845  33.2904  33.2996  33.3041  37.9995  38.0047  38.0127  38.0167
    39.8201  39.8243  39.8315  39.8348  41.4479  41.4562  41.4679  41.4695
    41.4713  41.4751  41.4801  41.4881  43.8123  43.8139  43.8172  43.8194
    44.8957  44.8983  44.9056  44.9069  44.9082  44.9110  44.9127  44.9169
    48.8014  48.8118  48.8153  48.8234  48.8277  48.8331  48.8370  48.8485
    51.7375  51.7416  51.7494  51.7547  53.3708  53.3748  53.3812  53.3878
    53.5660  53.5703  53.5815  53.5856  53.5944  53.6009  53.6089  53.6179
    54.1928  54.1943

          k = 0.3000 0.3000 0.3000 (  4788 PWs)   bands (ev):

    31.5566  34.3152  34.3271  34.3368  36.7614  36.7729  36.7823  38.8488
    39.7441  39.7496  39.7540  41.7417  41.7482  41.7544  41.8713  41.8758
    41.8789  41.8850  41.8917  41.8938  43.7899  43.7951  43.7982  43.8016
    43.8030  43.8089  43.8145  43.8233  43.8306  44.8391  44.8400  44.8411
    48.4410  48.4529  48.4648  49.7969  49.8034  49.8087  51.4794  51.4809
    51.4831  51.4867  51.4923  51.4982  52.3598  52.3652  52.3675  52.3717
    52.3841  52.3893  52.4232  52.4296  52.4385  53.1037  54.7226  54.7283
    54.7347  55.3105

          k = 0.3000 0.3000-0.5000 (  4758 PWs)   bands (ev):

    32.7245  32.7341  35.3444  35.3512  35.3572  35.3601  37.6258  37.6344
    40.6711  40.6744  40.6767  40.6803  41.0146  41.0272  42.6981  42.7049
    42.7077  42.7119  42.7203  42.7213  42.7241  42.7286  43.1419  43.1437
    43.1535  43.1568  44.4888  44.4910  44.4936  44.4985  44.9318  44.9403
    48.2791  48.2912  50.2931  50.3126  50.3144  50.3241  50.3396  50.3448
    50.3533  50.3641  51.5167  51.5316  51.5394  51.5520  51.9477  51.9549
    51.9562  51.9604  53.2598  53.2827  53.5650  53.5746  53.5778  53.5868
    55.2183  55.2293

          k = 0.3000-0.5000-0.5000 (  4772 PWs)   bands (ev):

    33.8248  33.8306  33.8398  33.8443  36.2915  36.2970  36.3059  36.3101
    41.5431  41.5461  41.5512  41.5537  41.9570  41.9653  41.9774  41.9789
    41.9805  41.9846  41.9896  41.9978  43.6135  43.6142  43.6156  43.6166
    43.9827  43.9897  44.0018  44.0027  44.0040  44.0089  44.0124  44.0206
    49.7321  49.7375  49.7454  49.7543  49.7618  49.7632  49.7697  49.7778
    51.0360  51.0397  51.0464  51.0503  51.9002  51.9033  51.9112  51.9162
    52.4069  52.4095  52.4145  52.4222  52.4342  52.4351  52.4442  52.4449
    56.0454  56.0486

          k =-0.5000-0.5000-0.5000 (  4776 PWs)   bands (ev):

    34.8460  34.8564  34.8585  34.8659  34.8701  34.8728  34.8834  34.8863
    42.8576  42.8608  42.8666  42.8723  42.8787  42.8805  42.8825  42.8833
    42.8848  42.8863  42.8882  42.8903  42.8942  42.8985  42.8997  42.9035
    42.9048  42.9089  42.9096  42.9158  42.9195  42.9211  42.9227  42.9289
    50.9931  51.0053  51.0098  51.0151  51.0181  51.0226  51.0274  51.0313
    51.0326  51.0353  51.0363  51.0390  51.0430  51.0446  51.0478  51.0546
    51.0561  51.0637  51.0640  51.0701  51.0743  51.0790  51.0857  51.0873
    58.6618  58.6672

          k =-0.1000-0.1000 0.1000 (  4785 PWs)   bands (ev):

    29.6299  35.1278  35.1372  35.1445  37.0442  37.0521  37.0580  39.6264
    39.6353  39.6420  40.8565  40.8578  40.8593  41.2556  41.2659  41.2711
    41.2726  41.2857  41.2965  42.7020  42.7084  42.7133  43.0659  44.2846
    44.2880  44.2936  44.2971  44.3021  44.3083  44.6221  44.6286  44.6353
    46.2228  46.2297  46.2368  47.7227  52.1408  52.1424  52.1437  52.7698
    52.7713  52.7718  52.7740  52.7765  52.7771  53.4249  53.4282  53.4304
    53.4312  53.4321  53.4350  53.7655  53.7667  53.7675  54.4549  54.4557
    54.4568  54.7061

          k =-0.1000 0.1000-0.1000 (  4785 PWs)   bands (ev):

    29.6299  35.1267  35.1365  35.1463  37.0433  37.0515  37.0596  39.6254
    39.6346  39.6438  40.8554  40.8578  40.8604  41.2534  41.2633  41.2742
    41.2790  41.2868  41.2907  42.7014  42.7078  42.7144  43.0658  44.2847
    44.2886  44.2929  44.2975  44.3022  44.3077  44.6170  44.6287  44.6405
    46.2174  46.2297  46.2421  47.7226  52.1397  52.1422  52.1450  52.7704
    52.7712  52.7725  52.7739  52.7754  52.7768  53.4269  53.4281  53.4299
    53.4311  53.4330  53.4338  53.7656  53.7661  53.7673  54.4543  54.4559
    54.4575  54.7035

          k = 0.1000-0.1000-0.1000 (  4785 PWs)   bands (ev):

    29.6299  35.1254  35.1390  35.1451  37.0422  37.0535  37.0586  39.6243
    39.6370  39.6426  40.8550  40.8578  40.8607  41.2544  41.2667  41.2728
    41.2771  41.2843  41.2921  42.7004  42.7094  42.7136  43.0660  44.2851
    44.2877  44.2923  44.2974  44.3024  44.3086  44.6158  44.6287  44.6418
    46.2161  46.2297  46.2435  47.7225  52.1394  52.1424  52.1452  52.7695
    52.7705  52.7723  52.7749  52.7760  52.7774  53.4263  53.4278  53.4289
    53.4310  53.4325  53.4347  53.7648  53.7669  53.7687  54.4541  54.4558
    54.4577  54.7024

          k =-0.1000-0.1000 0.3000 (  4773 PWs)   bands (ev):

    30.2936  33.2218  35.6661  35.6706  37.5657  37.5693  38.0410  38.0453
    38.7223  39.8181  39.8217  40.0129  40.6106  41.4474  41.4496  41.6565
    41.6652  41.7687  42.7442  42.7468  43.1173  43.4018  43.4115  43.5616
    43.5633  43.8769  43.8785  44.2335  44.2346  44.4881  44.4907  44.9394
    46.4894  47.9450  47.9562  49.4700  51.1139  52.1969  52.1984  52.3167
    52.3236  52.3645  52.3751  52.5276  52.5289  52.5791  52.5800  52.7713
    52.8526  52.8535  53.6371  53.6398  53.7521  53.7536  53.8351  53.9463
    53.9477  54.1367

          k =-0.1000 0.1000-0.3000 (  4773 PWs)   bands (ev):

    30.2936  33.2218  35.6643  35.6724  37.5643  37.5709  38.0392  38.0471
    38.7222  39.8165  39.8232  40.0131  40.6105  41.4464  41.4507  41.6535
    41.6692  41.7677  42.7431  42.7477  43.1175  43.3970  43.4164  43.5609
    43.5640  43.8761  43.8791  44.2330  44.2352  44.4870  44.4919  44.9393
    46.4894  47.9396  47.9616  49.4701  51.1141  52.1955  52.1998  52.3198
    52.3218  52.3574  52.3796  52.5274  52.5299  52.5790  52.5804  52.7702
    52.8530  52.8545  53.6362  53.6409  53.7516  53.7539  53.8343  53.9467
    53.9481  54.1366

          k = 0.1000-0.1000-0.3000 (  4773 PWs)   bands (ev):

    30.2936  33.2218  35.6644  35.6723  37.5639  37.5708  38.0393  38.0472
    38.7224  39.8166  39.8234  40.0127  40.6105  41.4464  41.4507  41.6521
    41.6695  41.7687  42.7434  42.7478  43.1167  43.3972  43.4162  43.5607
    43.5640  43.8766  43.8793  44.2331  44.2354  44.4869  44.4918  44.9392
    46.4895  47.9396  47.9616  49.4698  51.1140  52.1958  52.1997  52.3224
    52.3230  52.3551  52.3783  52.5272  52.5297  52.5791  52.5806  52.7714
    52.8526  52.8533  53.6363  53.6403  53.7511  53.7535  53.8363  53.9461
    53.9477  54.1370

          k = 0.3000-0.1000 0.1000 (  4773 PWs)   bands (ev):

    30.2936  33.2218  35.6639  35.6728  37.5639  37.5714  38.0388  38.0472
    38.7223  39.8164  39.8238  40.0128  40.6107  41.4476  41.4494  41.6583
    41.6650  41.7670  42.7428  42.7480  43.1176  43.4023  43.4108  43.5617
    43.5631  43.8762  43.8794  44.2330  44.2354  44.4867  44.4921  44.9393
    46.4894  47.9457  47.9554  49.4700  51.1139  52.1971  52.1986  52.3186
    52.3207  52.3656  52.3736  52.5283  52.5293  52.5789  52.5808  52.7707
    52.8522  52.8540  53.6363  53.6404  53.7521  53.7533  53.8349  53.9458
    53.9486  54.1364

          k =-0.3000-0.1000-0.1000 (  4773 PWs)   bands (ev):

    30.2936  33.2218  35.6619  35.6748  37.5623  37.5730  38.0367  38.0493
    38.7223  39.8145  39.8254  40.0132  40.6105  41.4466  41.4502  41.6548
    41.6686  41.7670  42.7416  42.7489  43.1179  43.3982  43.4146  43.5614
    43.5637  43.8754  43.8802  44.2323  44.2359  44.4855  44.4934  44.9393
    46.4893  47.9411  47.9601  49.4699  51.1141  52.1952  52.1994  52.3181
    52.3234  52.3605  52.3781  52.5274  52.5294  52.5782  52.5812  52.7716
    52.8525  52.8536  53.6348  53.6425  53.7509  53.7534  53.8361  53.9457
    53.9477  54.1359

          k = 0.3000 0.1000-0.1000 (  4773 PWs)   bands (ev):

    30.2936  33.2218  35.6639  35.6728  37.5640  37.5713  38.0387  38.0472
    38.7224  39.8163  39.8239  40.0127  40.6106  41.4476  41.4494  41.6582
    41.6651  41.7670  42.7429  42.7483  43.1175  43.4020  43.4109  43.5619
    43.5630  43.8764  43.8793  44.2328  44.2354  44.4867  44.4921  44.9394
    46.4893  47.9456  47.9554  49.4700  51.1141  52.1969  52.1987  52.3190
    52.3230  52.3643  52.3723  52.5279  52.5291  52.5791  52.5807  52.7717
    52.8520  52.8532  53.6360  53.6411  53.7514  53.7529  53.8363  53.9461
    53.9476  54.1365

          k =-0.3000 0.1000 0.1000 (  4773 PWs)   bands (ev):

    30.2936  33.2218  35.6619  35.6748  37.5622  37.5729  38.0367  38.0493
    38.7225  39.8143  39.8254  40.0132  40.6106  41.4466  41.4503  41.6544
    41.6687  41.7673  42.7418  42.7492  43.1177  43.3978  43.4146  43.5611
    43.5639  43.8754  43.8804  44.2324  44.2359  44.4855  44.4934  44.9393
    46.4894  47.9411  47.9601  49.4699  51.1138  52.1958  52.1988  52.3199
    52.3254  52.3584  52.3762  52.5273  52.5294  52.5782  52.5811  52.7718
    52.8526  52.8537  53.6348  53.6423  53.7518  53.7539  53.8349  53.9457
    53.9480  54.1360

          k =-0.1000 0.3000 0.1000 (  4773 PWs)   bands (ev):

    30.2936  33.2218  35.6616  35.6751  37.5617  37.5732  38.0366  38.0497
    38.7224  39.8142  39.8255  40.0132  40.6105  41.4484  41.4487  41.6593
    41.6624  41.7686  42.7417  42.7493  43.1171  43.4060  43.4069  43.5624
    43.5626  43.8754  43.8805  44.2323  44.2359  44.4852  44.4936  44.9392
    46.4895  47.9500  47.9513  49.4698  51.1139  52.1975  52.1977  52.3203
    52.3257  52.3658  52.3685  52.5274  52.5279  52.5788  52.5814  52.7716
    52.8519  52.8538  53.6343  53.6420  53.7508  53.7530  53.8370  53.9457
    53.9484  54.1362

          k =-0.1000-0.3000-0.1000 (  4773 PWs)   bands (ev):

    30.2936  33.2218  35.6605  35.6762  37.5608  37.5741  38.0357  38.0507
    38.7224  39.8134  39.8268  40.0127  40.6105  41.4475  41.4495  41.6578
    41.6639  41.7685  42.7410  42.7502  43.1171  43.4019  43.4114  43.5616
    43.5632  43.8751  43.8807  44.2318  44.2364  44.4845  44.4943  44.9392
    46.4895  47.9454  47.9557  49.4700  51.1141  52.1970  52.1988  52.3186
    52.3254  52.3605  52.3732  52.5282  52.5293  52.5779  52.5810  52.7716
    52.8530  52.8538  53.6335  53.6421  53.7524  53.7533  53.8351  53.9456
    53.9493  54.1355

          k = 0.1000 0.3000-0.1000 (  4773 PWs)   bands (ev):

    30.2936  33.2218  35.6616  35.6751  37.5619  37.5732  38.0365  38.0497
    38.7222  39.8145  39.8258  40.0125  40.6106  41.4483  41.4486  41.6606
    41.6620  41.7679  42.7416  42.7494  43.1172  43.4060  43.4072  43.5624
    43.5626  43.8751  43.8803  44.2321  44.2360  44.4852  44.4936  44.9393
    46.4894  47.9500  47.9513  49.4700  51.1140  52.1973  52.1979  52.3197
    52.3233  52.3669  52.3706  52.5278  52.5280  52.5785  52.5809  52.7717
    52.8522  52.8533  53.6343  53.6423  53.7515  53.7528  53.8358  53.9462
    53.9487  54.1358

          k = 0.1000-0.3000 0.1000 (  4773 PWs)   bands (ev):

    30.2936  33.2218  35.6605  35.6762  37.5610  37.5741  38.0355  38.0508
    38.7223  39.8132  39.8265  40.0131  40.6105  41.4476  41.4495  41.6571
    41.6651  41.7681  42.7409  42.7500  43.1175  43.4021  43.4112  43.5616
    43.5631  43.8748  43.8806  44.2319  44.2363  44.4845  44.4943  44.9393
    46.4895  47.9454  47.9558  49.4700  51.1141  52.1970  52.1989  52.3153
    52.3249  52.3621  52.3758  52.5278  52.5290  52.5784  52.5813  52.7713
    52.8520  52.8540  53.6338  53.6428  53.7524  53.7534  53.8350  53.9455
    53.9486  54.1354

          k =-0.1000 0.1000 0.5000 (  4804 PWs)   bands (ev):

    31.5359  31.5454  36.6632  36.6732  36.6741  36.6821  38.5233  38.5316
    38.5324  38.5393  39.9308  39.9433  40.7346  40.7413  42.3825  42.3873
    42.3992  42.4056  42.4580  42.4619  42.4629  42.4666  43.7779  43.7795
    43.7891  43.7910  43.8858  43.8900  44.4835  44.4854  44.4928  44.4951
    48.6371  48.6550  49.9879  50.0018  50.0122  50.0275  51.5088  51.5240
    52.2551  52.2580  52.2684  52.2719  52.3207  52.3234  52.3242  52.3280
    52.8406  52.8468  52.8573  52.8613  54.0168  54.0437  54.0773  54.0782
    54.0803  54.0816

          k =-0.5000-0.1000 0.1000 (  4804 PWs)   bands (ev):

    31.5354  31.5459  36.6637  36.6703  36.6737  36.6847  38.5237  38.5292
    38.5323  38.5414  39.9302  39.9440  40.7342  40.7417  42.3815  42.3954
    42.3979  42.3996  42.4593  42.4610  42.4620  42.4671  43.7778  43.7788
    43.7899  43.7917  43.8853  43.8898  44.4827  44.4852  44.4941  44.4951
    48.6362  48.6560  49.9849  50.0085  50.0134  50.0222  51.5081  51.5247
    52.2538  52.2573  52.2703  52.2729  52.3201  52.3234  52.3258  52.3267
    52.8399  52.8446  52.8568  52.8644  54.0157  54.0462  54.0778  54.0779
    54.0791  54.0811

          k = 0.5000-0.1000-0.1000 (  4804 PWs)   bands (ev):

    31.5353  31.5459  36.6628  36.6700  36.6737  36.6860  38.5228  38.5286
    38.5320  38.5431  39.9302  39.9440  40.7343  40.7418  42.3835  42.3884
    42.3977  42.4039  42.4586  42.4620  42.4633  42.4663  43.7761  43.7793
    43.7880  43.7944  43.8859  43.8897  44.4819  44.4859  44.4936  44.4956
    48.6361  48.6559  49.9884  50.0024  50.0114  50.0272  51.5079  51.5245
    52.2493  52.2594  52.2671  52.2780  52.3203  52.3234  52.3250  52.3279
    52.8285  52.8501  52.8553  52.8721  54.0158  54.0463  54.0771  54.0782
    54.0798  54.0805

          k =-0.1000-0.5000 0.1000 (  4804 PWs)   bands (ev):

    31.5392  31.5420  36.6619  36.6693  36.6792  36.6820  38.5216  38.5286
    38.5367  38.5397  39.9351  39.9390  40.7371  40.7390  42.3917  42.3927
    42.3944  42.3954  42.4615  42.4617  42.4630  42.4633  43.7787  43.7843
    43.7858  43.7889  43.8870  43.8887  44.4856  44.4876  44.4898  44.4940
    48.6433  48.6487  50.0034  50.0049  50.0099  50.0114  51.5141  51.5186
    52.2542  52.2622  52.2651  52.2719  52.3229  52.3236  52.3246  52.3252
    52.8358  52.8480  52.8532  52.8686  54.0262  54.0349  54.0785  54.0788
    54.0796  54.0801

          k =-0.1000 0.5000-0.1000 (  4804 PWs)   bands (ev):

    31.5392  31.5420  36.6628  36.6673  36.6801  36.6823  38.5230  38.5266
    38.5377  38.5394  39.9351  39.9390  40.7370  40.7389  42.3852  42.3940
    42.3950  42.4007  42.4606  42.4614  42.4620  42.4651  43.7804  43.7841
    43.7855  43.7879  43.8867  43.8887  44.4864  44.4883  44.4897  44.4925
    48.6434  48.6488  49.9943  50.0093  50.0100  50.0155  51.5142  51.5188
    52.2596  52.2626  52.2642  52.2677  52.3215  52.3242  52.3245  52.3251
    52.8439  52.8497  52.8542  52.8582  54.0263  54.0351  54.0779  54.0787
    54.0795  54.0806

          k =-0.1000-0.3000 0.3000 (  4792 PWs)   bands (ev):

    30.9362  33.7827  33.7921  36.1725  36.3283  38.0573  38.4473  38.4560
    39.2442  39.2484  40.2216  40.2276  40.3626  41.1845  41.1895  41.4377
    41.4447  42.0210  42.0764  43.1779  43.1822  43.3371  43.3432  43.9723
    43.9749  44.3090  44.3118  44.5347  44.5457  44.5476  45.0592  45.0671
    46.8575  46.8658  49.6511  50.2253  50.2288  51.1710  51.1732  51.2131
    51.2213  51.2468  52.0563  52.0889  52.0948  52.1212  52.6827  52.6837
    52.7436  52.7496  53.7622  53.7689  53.9921  53.9926  54.2539  54.3145
    54.3251  54.5352

          k =-0.1000 0.3000-0.3000 (  4792 PWs)   bands (ev):

    30.9362  33.7827  33.7921  36.1726  36.3283  38.0575  38.4472  38.4559
    39.2442  39.2484  40.2216  40.2281  40.3620  41.1845  41.1895  41.4377
    41.4447  42.0209  42.0765  43.1780  43.1822  43.3371  43.3431  43.9723
    43.9749  44.3090  44.3117  44.5340  44.5460  44.5482  45.0591  45.0671
    46.8575  46.8658  49.6509  50.2255  50.2288  51.1716  51.1729  51.2130
    51.2215  51.2462  52.0562  52.0892  52.0948  52.1211  52.6827  52.6837
    52.7437  52.7494  53.7626  53.7692  53.9922  53.9926  54.2539  54.3142
    54.3246  54.5359

          k = 0.1000-0.3000-0.3000 (  4792 PWs)   bands (ev):

    30.9362  33.7807  33.7942  36.1724  36.3284  38.0572  38.4457  38.4578
    39.2433  39.2493  40.2194  40.2300  40.3625  41.1820  41.1919  41.4343
    41.4480  42.0210  42.0763  43.1769  43.1830  43.3359  43.3446  43.9717
    43.9754  44.3086  44.3123  44.5354  44.5447  44.5481  45.0554  45.0708
    46.8536  46.8698  49.6508  50.2245  50.2297  51.1716  51.1759  51.2051
    51.2179  51.2552  52.0571  52.0879  52.0950  52.1209  52.6827  52.6838
    52.7410  52.7522  53.7611  53.7705  53.9921  53.9927  54.2540  54.3089
    54.3304  54.5347

          k = 0.3000 0.1000-0.3000 (  4792 PWs)   bands (ev):

    30.9362  33.7803  33.7945  36.1724  36.3284  38.0577  38.4451  38.4578
    39.2430  39.2495  40.2200  40.2308  40.3612  41.1866  41.1874  41.4403
    41.4418  42.0209  42.0767  43.1769  43.1832  43.3356  43.3448  43.9716
    43.9756  44.3084  44.3126  44.5343  44.5463  44.5475  45.0624  45.0636
    46.8612  46.8623  49.6506  50.2247  50.2298  51.1723  51.1742  51.2081
    51.2205  51.2504  52.0555  52.0888  52.0955  52.1216  52.6828  52.6839
    52.7461  52.7467  53.7606  53.7708  53.9924  53.9928  54.2541  54.3186
    54.3200  54.5364

          k =-0.3000-0.1000-0.3000 (  4792 PWs)   bands (ev):

    30.9362  33.7792  33.7957  36.1725  36.3284  38.0575  38.4438  38.4590
    39.2427  39.2499  40.2191  40.2310  40.3619  41.1843  41.1898  41.4373
    41.4449  42.0209  42.0767  43.1762  43.1837  43.3348  43.3454  43.9713
    43.9758  44.3082  44.3128  44.5351  44.5456  44.5474  45.0589  45.0673
    46.8573  46.8660  49.6510  50.2238  50.2302  51.1718  51.1729  51.2156
    51.2206  51.2445  52.0563  52.0873  52.0965  52.1216  52.6826  52.6836
    52.7438  52.7495  53.7598  53.7716  53.9918  53.9926  54.2540  54.3137
    54.3254  54.5345

          k = 0.3000-0.1000 0.3000 (  4792 PWs)   bands (ev):

    30.9362  33.7792  33.7957  36.1724  36.3284  38.0577  38.4439  38.4589
    39.2425  39.2500  40.2193  40.2313  40.3614  41.1843  41.1897  41.4376
    41.4446  42.0209  42.0767  43.1763  43.1838  43.3348  43.3454  43.9713
    43.9758  44.3083  44.3127  44.5349  44.5457  44.5475  45.0589  45.0672
    46.8573  46.8660  49.6510  50.2238  50.2303  51.1726  51.1735  51.2149
    51.2199  51.2445  52.0553  52.0881  52.0965  52.1218  52.6826  52.6834
    52.7437  52.7496  53.7597  53.7715  53.9923  53.9927  54.2540  54.3136
    54.3255  54.5342

          k =-0.3000 0.1000 0.3000 (  4792 PWs)   bands (ev):

    30.9362  33.7803  33.7945  36.1725  36.3283  38.0574  38.4452  38.4578
    39.2433  39.2495  40.2192  40.2308  40.3617  41.1866  41.1874  41.4407
    41.4416  42.0209  42.0765  43.1768  43.1832  43.3356  43.3448  43.9715
    43.9756  44.3083  44.3124  44.5350  44.5463  44.5467  45.0627  45.0636
    46.8611  46.8623  49.6509  50.2244  50.2297  51.1729  51.1739  51.2062
    51.2204  51.2519  52.0544  52.0893  52.0958  52.1218  52.6827  52.6839
    52.7461  52.7469  53.7606  53.7710  53.9923  53.9927  54.2540  54.3186
    54.5346  54.5378

          k = 0.3000-0.3000 0.1000 (  4792 PWs)   bands (ev):

    30.9362  33.7832  33.7916  36.1725  36.3283  38.0579  38.4476  38.4552
    39.2443  39.2482  40.2225  40.2288  40.3607  41.1813  41.1928  41.4330
    41.4491  42.0209  42.0767  43.1783  43.1819  43.3375  43.3428  43.9724
    43.9747  44.3094  44.3116  44.5341  44.5449  44.5489  45.0541  45.0721
    46.8524  46.8711  49.6506  50.2259  50.2286  51.1705  51.1748  51.2095
    51.2204  51.2500  52.0569  52.0901  52.0939  52.1208  52.6826  52.6837
    52.7402  52.7529  53.7628  53.7685  53.9923  53.9925  54.2540  54.3068
    54.3320  54.5353

          k =-0.3000-0.3000-0.1000 (  4792 PWs)   bands (ev):

    30.9362  33.7851  33.7897  36.1726  36.3282  38.0576  38.4495  38.4535
    39.2453  39.2473  40.2232  40.2273  40.3613  41.1841  41.1900  41.4370
    41.4452  42.0209  42.0766  43.1790  43.1811  43.3387  43.3416  43.9729
    43.9741  44.3098  44.3111  44.5349  44.5455  44.5476  45.0586  45.0676
    46.8570  46.8663  49.6509  50.2263  50.2281  51.1719  51.1735  51.2103
    51.2199  51.2496  52.0575  52.0900  52.0930  52.1209  52.6830  52.6833
    52.7433  52.7499  53.7641  53.7675  53.9918  53.9927  54.2541  54.3134
    54.3254  54.5360

          k = 0.3000 0.3000-0.1000 (  4792 PWs)   bands (ev):

    30.9362  33.7851  33.7897  36.1724  36.3284  38.0578  38.4493  38.4535
    39.2452  39.2474  40.2237  40.2272  40.3609  41.1841  41.1899  41.4372
    41.4450  42.0209  42.0766  43.1791  43.1811  43.3386  43.3416  43.9729
    43.9741  44.3097  44.3111  44.5342  44.5459  44.5480  45.0585  45.0675
    46.8570  46.8664  49.6508  50.2263  50.2280  51.1728  51.1743  51.2112
    51.2183  51.2489  52.0563  52.0900  52.0936  52.1211  52.6831  52.6833
    52.7433  52.7499  53.7642  53.7670  53.9922  53.9925  54.2542  54.3134
    54.3255  54.5359

          k =-0.3000 0.3000 0.1000 (  4792 PWs)   bands (ev):

    30.9362  33.7832  33.7916  36.1726  36.3283  38.0576  38.4478  38.4551
    39.2446  39.2482  40.2214  40.2288  40.3614  41.1813  41.1928  41.4334
    41.4490  42.0209  42.0764  43.1782  43.1819  43.3375  43.3428  43.9723
    43.9746  44.3092  44.3115  44.5348  44.5448  44.5486  45.0542  45.0721
    46.8524  46.8711  49.6508  50.2258  50.2284  51.1713  51.1750  51.2061
    51.2208  51.2521  52.0556  52.0898  52.0950  52.1209  52.6827  52.6838
    52.7403  52.7530  53.7629  53.7689  53.9922  53.9924  54.2542  54.3069
    54.3319  54.5355

          k =-0.1000 0.3000 0.5000 (  4754 PWs)   bands (ev):

    32.1424  32.1520  34.8550  34.8643  37.1265  37.1351  38.9750  38.9821
    39.2358  39.2439  40.2033  40.2086  40.4805  40.4930  40.9946  41.0011
    42.1921  42.1937  42.6603  42.6726  42.9847  42.9890  43.9877  43.9908
    44.2177  44.2285  44.4786  44.4852  44.7812  44.7887  45.0507  45.0511
    47.9018  47.9188  48.8934  48.9104  50.2013  50.2135  50.7102  50.7230
    51.5941  51.6087  51.7663  51.7793  52.0418  52.0482  52.7139  52.7178
    53.2500  53.2637  53.2754  53.2908  53.8495  53.8749  54.1272  54.1290
    54.3189  54.3269

          k = 0.3000 0.1000 0.5000 (  4754 PWs)   bands (ev):

    32.1424  32.1520  34.8550  34.8643  37.1265  37.1350  38.9752  38.9827
    39.2356  39.2431  40.2032  40.2086  40.4805  40.4930  40.9947  41.0014
    42.1921  42.1938  42.6602  42.6725  42.9847  42.9889  43.9877  43.9906
    44.2177  44.2284  44.4786  44.4852  44.7814  44.7887  45.0507  45.0511
    47.9018  47.9188  48.8933  48.9105  50.2014  50.2135  50.7101  50.7230
    51.5939  51.6085  51.7665  51.7797  52.0419  52.0483  52.7136  52.7178
    53.2457  53.2631  53.2798  53.2913  53.8497  53.8750  54.1272  54.1290
    54.3189  54.3270

          k = 0.3000-0.1000-0.5000 (  4754 PWs)   bands (ev):

    32.1424  32.1520  34.8550  34.8643  37.1265  37.1350  38.9753  38.9824
    39.2355  39.2436  40.2032  40.2084  40.4805  40.4930  40.9947  41.0015
    42.1921  42.1938  42.6602  42.6726  42.9847  42.9889  43.9878  43.9907
    44.2177  44.2284  44.4785  44.4852  44.7813  44.7888  45.0508  45.0511
    47.9018  47.9188  48.8933  48.9104  50.2013  50.2136  50.7102  50.7230
    51.5945  51.6088  51.7659  51.7794  52.0417  52.0483  52.7140  52.7178
    53.2445  53.2639  53.2777  53.2937  53.8495  53.8748  54.1273  54.1291
    54.3188  54.3268

          k =-0.5000-0.3000 0.1000 (  4754 PWs)   bands (ev):

    32.1419  32.1525  34.8544  34.8648  37.1260  37.1357  38.9749  38.9832
    39.2350  39.2437  40.2026  40.2085  40.4801  40.4940  40.9945  41.0015
    42.1920  42.1937  42.6597  42.6733  42.9845  42.9891  43.9873  43.9908
    44.2174  44.2291  44.4783  44.4855  44.7808  44.7890  45.0507  45.0511
    47.9009  47.9197  48.8923  48.9114  50.2005  50.2142  50.7095  50.7238
    51.5938  51.6096  51.7655  51.7797  52.0412  52.0484  52.7135  52.7180
    53.2507  53.2650  53.2736  53.2910  53.8484  53.8766  54.1269  54.1290
    54.3183  54.3272

          k = 0.5000-0.3000-0.1000 (  4754 PWs)   bands (ev):

    32.1419  32.1525  34.8544  34.8648  37.1260  37.1357  38.9742  38.9830
    39.2357  39.2437  40.2028  40.2089  40.4801  40.4939  40.9943  41.0013
    42.1920  42.1937  42.6598  42.6733  42.9845  42.9890  43.9872  43.9908
    44.2175  44.2292  44.4782  44.4856  44.7808  44.7891  45.0506  45.0512
    47.9009  47.9197  48.8924  48.9114  50.2005  50.2143  50.7092  50.7237
    51.5938  51.6092  51.7657  51.7804  52.0411  52.0487  52.7136  52.7183
    53.2463  53.2646  53.2761  53.2925  53.8483  53.8764  54.1269  54.1290
    54.3184  54.3270

          k =-0.1000-0.5000 0.3000 (  4754 PWs)   bands (ev):

    32.1458  32.1486  34.8583  34.8610  37.1295  37.1321  38.9771  38.9799
    39.2390  39.2409  40.2049  40.2065  40.4850  40.4890  40.9970  40.9987
    42.1925  42.1932  42.6645  42.6685  42.9862  42.9875  43.9886  43.9895
    44.2216  44.2250  44.4808  44.4829  44.7837  44.7863  45.0508  45.0511
    47.9077  47.9128  48.8993  48.9046  50.2055  50.2092  50.7146  50.7186
    51.5994  51.6040  51.7708  51.7745  52.0439  52.0459  52.7152  52.7165
    53.2530  53.2620  53.2750  53.2890  53.8585  53.8667  54.1278  54.1285
    54.3217  54.3240

          k =-0.1000 0.5000-0.3000 (  4754 PWs)   bands (ev):

    32.1458  32.1486  34.8583  34.8610  37.1295  37.1321  38.9779  38.9800
    39.2383  39.2407  40.2051  40.2064  40.4849  40.4888  40.9970  40.9989
    42.1925  42.1932  42.6645  42.6685  42.9861  42.9875  43.9886  43.9895
    44.2216  44.2249  44.4808  44.4830  44.7837  44.7862  45.0508  45.0511
    47.9078  47.9129  48.8993  48.9045  50.2055  50.2092  50.7146  50.7185
    51.5986  51.6039  51.7715  51.7743  52.0440  52.0459  52.7151  52.7164
    53.2548  53.2633  53.2739  53.2882  53.8585  53.8666  54.1277  54.1284
    54.3217  54.3240

          k = 0.3000-0.5000 0.1000 (  4754 PWs)   bands (ev):

    32.1458  32.1486  34.8582  34.8610  37.1296  37.1320  38.9777  38.9801
    39.2385  39.2406  40.2049  40.2066  40.4848  40.4887  40.9971  40.9989
    42.1927  42.1933  42.6645  42.6684  42.9861  42.9875  43.9888  43.9896
    44.2213  44.2248  44.4808  44.4829  44.7839  44.7863  45.0507  45.0510
    47.9078  47.9129  48.8992  48.9045  50.2056  50.2092  50.7146  50.7186
    51.5992  51.6041  51.7708  51.7747  52.0439  52.0457  52.7152  52.7165
    53.2529  53.2625  53.2769  53.2877  53.8584  53.8666  54.1278  54.1284
    54.3216  54.3239

          k = 0.3000 0.5000-0.1000 (  4754 PWs)   bands (ev):

    32.1458  32.1486  34.8582  34.8610  37.1296  37.1320  38.9778  38.9799
    39.2381  39.2407  40.2054  40.2066  40.4848  40.4888  40.9969  40.9987
    42.1927  42.1933  42.6645  42.6684  42.9861  42.9875  43.9888  43.9895
    44.2213  44.2248  44.4807  44.4831  44.7837  44.7862  45.0508  45.0510
    47.9077  47.9128  48.8995  48.9046  50.2055  50.2093  50.7146  50.7185
    51.5988  51.6043  51.7713  51.7743  52.0440  52.0459  52.7151  52.7165
    53.2500  53.2585  53.2804  53.2905  53.8584  53.8667  54.1278  54.1285
    54.3217  54.3241

          k =-0.5000 0.1000 0.3000 (  4754 PWs)   bands (ev):

    32.1419  32.1525  34.8545  34.8648  37.1260  37.1356  38.9741  38.9825
    39.2356  39.2444  40.2031  40.2087  40.4800  40.4938  40.9942  41.0015
    42.1920  42.1937  42.6598  42.6733  42.9845  42.9891  43.9874  43.9908
    44.2172  44.2292  44.4782  44.4856  44.7809  44.7891  45.0507  45.0511
    47.9009  47.9197  48.8924  48.9113  50.2007  50.2143  50.7094  50.7236
    51.5935  51.6094  51.7655  51.7799  52.0413  52.0492  52.7137  52.7181
    53.2433  53.2619  53.2772  53.2971  53.8482  53.8764  54.1271  54.1289
    54.3184  54.3272

          k = 0.5000-0.1000 0.3000 (  4754 PWs)   bands (ev):

    32.1419  32.1525  34.8545  34.8648  37.1259  37.1355  38.9745  38.9831
    39.2355  39.2438  40.2027  40.2087  40.4800  40.4939  40.9944  41.0015
    42.1920  42.1937  42.6598  42.6733  42.9845  42.9891  43.9876  43.9907
    44.2173  44.2291  44.4782  44.4855  44.7809  44.7891  45.0507  45.0511
    47.9009  47.9197  48.8924  48.9113  50.2006  50.2142  50.7095  50.7237
    51.5937  51.6096  51.7654  51.7799  52.0412  52.0486  52.7137  52.7179
    53.2457  53.2642  53.2767  53.2935  53.8482  53.8766  54.1271  54.1291
    54.3183  54.3273

          k =-0.5000 0.1000 0.5000 (  4740 PWs)   bands (ev):

    33.2810  33.2895  33.2988  33.3093  37.9964  38.0037  38.0121  38.0211
    39.8174  39.8237  39.8307  39.8388  41.4527  41.4606  41.4610  41.4671
    41.4698  41.4771  41.4802  41.4878  43.8100  43.8151  43.8165  43.8210
    44.8973  44.8999  44.9026  44.9051  44.9076  44.9117  44.9146  44.9165
    48.7937  48.8091  48.8194  48.8224  48.8243  48.8379  48.8447  48.8466
    51.7326  51.7437  51.7490  51.7583  53.3639  53.3757  53.3821  53.3911
    53.5693  53.5728  53.5815  53.5837  53.5936  53.5989  53.6073  53.6200
    54.1912  54.1954

          k =-0.5000 0.5000 0.1000 (  4740 PWs)   bands (ev):

    33.2880  33.2889  33.2984  33.3033  38.0025  38.0034  38.0118  38.0161
    39.8226  39.8233  39.8303  39.8340  41.4517  41.4538  41.4609  41.4690
    41.4714  41.4809  41.4829  41.4859  43.8119  43.8139  43.8178  43.8189
    44.8969  44.8980  44.9036  44.9070  44.9077  44.9123  44.9129  44.9166
    48.8067  48.8114  48.8181  48.8214  48.8240  48.8305  48.8402  48.8458
    51.7376  51.7420  51.7510  51.7528  53.3692  53.3748  53.3836  53.3864
    53.5636  53.5744  53.5833  53.5841  53.5922  53.6035  53.6054  53.6192
    54.1927  54.1940

          k =-0.3000-0.3000 0.3000 (  4788 PWs)   bands (ev):

    31.5566  34.3172  34.3272  34.3347  36.7634  36.7729  36.7802  38.8489
    39.7449  39.7496  39.7531  41.7443  41.7480  41.7521  41.8659  41.8752
    41.8791  41.8801  41.8939  41.9023  43.7913  43.7980  43.7999  43.8026
    43.8050  43.8099  43.8133  43.8198  43.8252  44.8393  44.8400  44.8409
    48.4456  48.4528  48.4603  49.7980  49.8033  49.8076  51.4791  51.4821
    51.4847  51.4895  51.4906  51.4950  52.3569  52.3627  52.3713  52.3773
    52.3804  52.3894  52.4255  52.4302  52.4350  53.1037  54.7239  54.7283
    54.7337  55.3117

          k =-0.3000 0.3000-0.3000 (  4788 PWs)   bands (ev):

    31.5566  34.3160  34.3264  34.3367  36.7623  36.7722  36.7821  38.8490
    39.7444  39.7492  39.7539  41.7414  41.7480  41.7551  41.8635  41.8731
    41.8819  41.8862  41.8928  41.8987  43.7937  43.7959  43.7989  43.8013
    43.8035  43.8055  43.8139  43.8225  43.8300  44.8391  44.8400  44.8410
    48.4401  48.4528  48.4658  49.7973  49.8031  49.8087  51.4766  51.4831
    51.4854  51.4895  51.4922  51.4936  52.3542  52.3656  52.3698  52.3772
    52.3811  52.3908  52.4236  52.4302  52.4367  53.1036  54.7230  54.7285
    54.7340  55.3098

          k = 0.3000-0.3000-0.3000 (  4788 PWs)   bands (ev):

    31.5566  34.3147  34.3290  34.3355  36.7609  36.7747  36.7809  38.8489
    39.7439  39.7504  39.7534  41.7403  41.7479  41.7560  41.8652  41.8739
    41.8812  41.8858  41.8917  41.8988  43.7891  43.7944  43.7979  43.8019
    43.8045  43.8088  43.8136  43.8228  43.8318  44.8393  44.8398  44.8413
    48.4387  48.4529  48.4673  49.7966  49.8043  49.8078  51.4764  51.4810
    51.4835  51.4894  51.4933  51.4976  52.3553  52.3623  52.3705  52.3720
    52.3834  52.3906  52.4233  52.4296  52.4408  53.1046  54.7232  54.7274
    54.7343  55.3098

          k =-0.3000 0.3000 0.5000 (  4758 PWs)   bands (ev):

    32.7245  32.7341  35.3428  35.3531  35.3543  35.3626  37.6258  37.6344
    40.6703  40.6753  40.6764  40.6805  41.0146  41.0272  42.6952  42.6987
    42.7103  42.7156  42.7185  42.7203  42.7276  42.7305  43.1420  43.1439
    43.1539  43.1562  44.4883  44.4923  44.4931  44.4982  44.9319  44.9403
    48.2790  48.2912  50.2956  50.3103  50.3169  50.3268  50.3372  50.3457
    50.3485  50.3649  51.5239  51.5296  51.5413  51.5450  51.9459  51.9524
    51.9572  51.9640  53.2597  53.2827  53.5688  53.5740  53.5786  53.5829
    55.2181  55.2294

          k =-0.5000-0.3000 0.3000 (  4758 PWs)   bands (ev):

    32.7240  32.7346  35.3433  35.3502  35.3540  35.3653  37.6253  37.6350
    40.6706  40.6737  40.6762  40.6815  41.0143  41.0282  42.6936  42.7064
    42.7084  42.7118  42.7182  42.7213  42.7250  42.7316  43.1417  43.1434
    43.1543  43.1574  44.4866  44.4920  44.4950  44.4981  44.9314  44.9408
    48.2783  48.2919  50.2939  50.3129  50.3192  50.3248  50.3366  50.3425
    50.3533  50.3626  51.5225  51.5277  51.5412  51.5483  51.9453  51.9569
    51.9578  51.9594  53.2586  53.2838  53.5678  53.5716  53.5802  53.5852
    55.2176  55.2297

          k = 0.5000-0.3000-0.3000 (  4758 PWs)   bands (ev):

    32.7240  32.7346  35.3423  35.3503  35.3538  35.3665  37.6252  37.6349
    40.6694  40.6731  40.6756  40.6841  41.0142  41.0281  42.6960  42.6998
    42.7094  42.7118  42.7198  42.7212  42.7288  42.7294  43.1407  43.1435
    43.1525  43.1598  44.4883  44.4913  44.4934  44.4988  44.9314  44.9408
    48.2784  48.2920  50.2967  50.3089  50.3185  50.3267  50.3342  50.3448
    50.3506  50.3656  51.5109  51.5333  51.5386  51.5569  51.9463  51.9535
    51.9559  51.9639  53.2585  53.2840  53.5635  53.5749  53.5780  53.5871
    55.2183  55.2297

          k =-0.3000-0.5000 0.3000 (  4758 PWs)   bands (ev):

    32.7279  32.7307  35.3418  35.3492  35.3597  35.3622  37.6288  37.6314
    40.6682  40.6741  40.6783  40.6818  41.0190  41.0230  42.7035  42.7044
    42.7067  42.7072  42.7224  42.7227  42.7243  42.7250  43.1429  43.1495
    43.1513  43.1528  44.4884  44.4910  44.4949  44.4975  44.9347  44.9375
    48.2832  48.2869  50.3082  50.3135  50.3155  50.3192  50.3375  50.3430
    50.3520  50.3571  51.5186  51.5314  51.5371  51.5525  51.9533  51.9539
    51.9557  51.9565  53.2676  53.2750  53.5687  53.5725  53.5790  53.5839
    55.2220  55.2251

          k =-0.3000 0.5000-0.3000 (  4758 PWs)   bands (ev):

    32.7279  32.7307  35.3425  35.3472  35.3604  35.3627  37.6289  37.6314
    40.6703  40.6725  40.6792  40.6803  41.0190  41.0230  42.6970  42.7057
    42.7069  42.7122  42.7182  42.7226  42.7241  42.7299  43.1448  43.1484
    43.1498  43.1532  44.4886  44.4901  44.4952  44.4980  44.9347  44.9375
    48.2833  48.2869  50.3024  50.3117  50.3156  50.3193  50.3433  50.3473
    50.3506  50.3552  51.5277  51.5337  51.5374  51.5413  51.9489  51.9554
    51.9562  51.9588  53.2677  53.2752  53.5723  53.5762  53.5769  53.5791
    55.2223  55.2252

          k =-0.5000 0.3000 0.5000 (  4772 PWs)   bands (ev):

    33.8213  33.8298  33.8391  33.8495  36.2882  36.2962  36.3051  36.3150
    41.5411  41.5452  41.5509  41.5564  41.9619  41.9701  41.9703  41.9764
    41.9792  41.9866  41.9899  41.9974  43.6124  43.6147  43.6150  43.6170
    43.9870  43.9939  43.9958  44.0007  44.0032  44.0099  44.0134  44.0194
    49.7257  49.7404  49.7501  49.7537  49.7548  49.7653  49.7753  49.7764
    51.0322  51.0425  51.0444  51.0539  51.8939  51.9062  51.9097  51.9203
    52.4041  52.4134  52.4173  52.4226  52.4283  52.4345  52.4429  52.4485
    56.0418  56.0494

          k =-0.5000 0.5000 0.3000 (  4772 PWs)   bands (ev):

    33.8282  33.8291  33.8386  33.8436  36.2947  36.2957  36.3047  36.3094
    41.5448  41.5451  41.5504  41.5531  41.9609  41.9629  41.9701  41.9784
    41.9810  41.9907  41.9923  41.9959  43.6131  43.6141  43.6156  43.6162
    43.9866  43.9872  43.9949  44.0026  44.0047  44.0137  44.0147  44.0189
    49.7328  49.7405  49.7479  49.7532  49.7551  49.7622  49.7705  49.7793
    51.0360  51.0395  51.0473  51.0501  51.8984  51.9032  51.9131  51.9156
    52.4031  52.4144  52.4173  52.4224  52.4277  52.4337  52.4415  52.4516
    56.0457  56.0490

     the Fermi energy is    52.7328 ev

!    total energy              =   -1130.04070939 Ry
     Harris-Foulkes estimate   =   -1130.04071084 Ry
     estimated scf accuracy    <       0.00000011 Ry

     total all-electron energy =    -15406.609731 Ry

     The total energy is the sum of the following terms:

     one-electron contribution =     469.19489939 Ry
     hartree contribution      =       1.74734419 Ry
     xc contribution           =    -138.29210893 Ry
     ewald contribution        =    -326.84024986 Ry
     one-center paw contrib.   =   -1135.84853259 Ry
     smearing contrib. (-TS)   =      -0.00206159 Ry

     convergence has been achieved in  32 iterations

     Forces acting on atoms (cartesian axes, Ry/au):

     atom    1 type  1   force =    -0.00275614   -0.00413232    0.00063209
     atom    2 type  1   force =    -0.00510746   -0.00146620    0.01291517
     atom    3 type  1   force =     0.01300188    0.00126012   -0.02099090
     atom    4 type  1   force =    -0.00677767    0.00277848   -0.02382755
     atom    5 type  1   force =    -0.01486180   -0.01322035    0.01690275
     atom    6 type  1   force =    -0.01071168    0.01110507   -0.00667994
     atom    7 type  1   force =    -0.01495352   -0.03171483    0.01293465
     atom    8 type  1   force =    -0.00624698    0.00956077   -0.00462823
     atom    9 type  1   force =     0.01927576    0.00488848   -0.00126887
     atom   10 type  1   force =    -0.00664944    0.00966344   -0.02768860
     atom   11 type  1   force =    -0.01002478   -0.01888656   -0.01302830
     atom   12 type  1   force =    -0.01568692   -0.00545779   -0.01015352
     atom   13 type  1   force =    -0.00480846   -0.01719547    0.00617241
     atom   14 type  1   force =    -0.00981476    0.01995813    0.01962808
     atom   15 type  1   force =    -0.01794084    0.01515224    0.01811760
     atom   16 type  1   force =     0.02467932    0.01204052    0.01472318
     atom   17 type  1   force =    -0.01790340   -0.00444299   -0.00126972
     atom   18 type  1   force =     0.01050447   -0.00377216    0.01512522
     atom   19 type  1   force =     0.02021795    0.01304210   -0.00395431
     atom   20 type  1   force =     0.00677139    0.02111352   -0.00928191
     atom   21 type  1   force =     0.00476414   -0.02267920    0.00990914
     atom   22 type  1   force =    -0.00225382    0.02348925    0.01202077
     atom   23 type  1   force =     0.01272888   -0.00903533   -0.01219783
     atom   24 type  1   force =     0.01436287    0.00507274    0.00409084
     atom   25 type  1   force =    -0.01142886   -0.00091258    0.00610658
     atom   26 type  1   force =     0.01176538   -0.00829797    0.00329544
     atom   27 type  1   force =    -0.00861385   -0.00749569    0.00355970
     atom   28 type  1   force =     0.00495036    0.00071252    0.00474498
     atom   29 type  1   force =     0.03877281   -0.01832752    0.00208084
     atom   30 type  1   force =    -0.00469520    0.00773423   -0.00069418
     atom   31 type  1   force =    -0.01026606   -0.00566652   -0.01731430
     atom   32 type  1   force =    -0.00029357    0.01513189   -0.00998129

     Total force =     0.128353     Total SCF correction =     0.000501


     Computing stress (Cartesian axis) and pressure

          total   stress  (Ry/bohr**3)                   (kbar)     P=59630.56
   0.40535840  -0.00000035   0.00000132      59630.27     -0.05      0.19
  -0.00000035   0.40536210  -0.00000169         -0.05  59630.81     -0.25
   0.00000132  -0.00000169   0.40536055          0.19     -0.25  59630.58


     Writing output data file fe_scf_fcc_2.save/
 
     init_run     :      2.82s CPU      3.05s WALL (       1 calls)
     electrons    :    130.28s CPU    136.51s WALL (       1 calls)
     forces       :      0.53s CPU      0.59s WALL (       1 calls)
     stress       :      0.97s CPU      0.98s WALL (       1 calls)

     Called by init_run:
     wfcinit      :      2.66s CPU      2.85s WALL (       1 calls)
     potinit      :      0.10s CPU      0.11s WALL (       1 calls)
     hinit0       :      0.05s CPU      0.09s WALL (       1 calls)

     Called by electrons:
     c_bands      :    116.35s CPU    121.58s WALL (      32 calls)
     sum_band     :     11.67s CPU     12.64s WALL (      32 calls)
     v_of_rho     :      0.07s CPU      0.08s WALL (      33 calls)
     newd         :      0.05s CPU      0.06s WALL (      33 calls)
     PAW_pot      :      2.17s CPU      2.19s WALL (      33 calls)
     mix_rho      :      0.04s CPU      0.05s WALL (      32 calls)

     Called by c_bands:
     init_us_2    :      1.35s CPU      1.40s WALL (    4221 calls)
     cegterg      :    111.47s CPU    115.85s WALL (    2016 calls)

     Called by sum_band:
     sum_band:bec :      0.19s CPU      0.20s WALL (    2016 calls)
     addusdens    :      0.03s CPU      0.04s WALL (      32 calls)

     Called by *egterg:
     h_psi        :     51.61s CPU     55.15s WALL (    7723 calls)
     s_psi        :      4.53s CPU      4.58s WALL (    7723 calls)
     g_psi        :      0.34s CPU      0.35s WALL (    5644 calls)
     cdiaghg      :     44.60s CPU     44.76s WALL (    7660 calls)

     Called by h_psi:
     h_psi:pot    :     51.32s CPU     54.86s WALL (    7723 calls)
     h_psi:calbec :      7.07s CPU      8.27s WALL (    7723 calls)
     vloc_psi     :     39.44s CPU     41.70s WALL (    7723 calls)
     add_vuspsi   :      4.77s CPU      4.84s WALL (    7723 calls)

     General routines
     calbec       :      9.96s CPU     11.73s WALL (   10054 calls)
     fft          :      0.10s CPU      0.15s WALL (     389 calls)
     ffts         :      0.01s CPU      0.01s WALL (      32 calls)
     fftw         :     44.42s CPU     46.97s WALL (  689790 calls)
 
     Parallel routines
     fft_scatt_xy :      3.39s CPU      3.57s WALL (  690211 calls)
     fft_scatt_yz :     28.05s CPU     29.79s WALL (  690211 calls)
 
     PWSCF        :  2m15.78s CPU     2m24.11s WALL

 
   This run was terminated on:  14:56:56  25Oct2019            

=------------------------------------------------------------------------------=
   JOB DONE.
=------------------------------------------------------------------------------=
