
     Program PWSCF v.6.3 starts on 30Oct2019 at  0:43:47 

     This program is part of the open-source Quantum ESPRESSO suite
     for quantum simulation of materials; please cite
         "P. Giannozzi et al., J. Phys.:Condens. Matter 21 395502 (2009);
         "P. Giannozzi et al., J. Phys.:Condens. Matter 29 465901 (2017);
          URL http://www.quantum-espresso.org", 
     in publications or presentations arising from this work. More details at
     http://www.quantum-espresso.org/quote

     Parallel version (MPI), running on     1 processors

     MPI processes distributed on     1 nodes
     Reading input from /cloud/Code/python/py_pwscf_converge/src/example2/wd/runpwscf/file_10264.in
Warning: card &IONS ignored
Warning: card ION_DYNAMICS = 'BFGS', ignored
Warning: card / ignored
Warning: card &CELL ignored
Warning: card CELL_DYNAMICS = 'BFGS', ignored
Warning: card CELL_FACTOR = 2.0, ignored
Warning: card PRESS = 0.0, ignored
Warning: card / ignored

     Current dimensions of program PWSCF are:
     Max number of different atomic species (ntypx) = 10
     Max number of k-points (npk) =  40000
     Max angular momentum in pseudopotentials (lmaxx) =  3
               file Al.pbe-nl-kjpaw_psl.1.0.0.UPF: wavefunction(s)  3S 3P renormalized

     Subspace diagonalization in iterative solution of the eigenvalue problem:
     a serial algorithm will be used


     G-vector sticks info
     --------------------
     sticks:   dense  smooth     PW     G-vecs:    dense   smooth      PW
     Sum         121     121     81                  949      949     515



     bravais-lattice index     =            0
     lattice parameter (alat)  =       4.0400  a.u.
     unit-cell volume          =      65.9393 (a.u.)^3
     number of atoms/cell      =            4
     number of atomic types    =            1
     number of electrons       =        12.00
     number of Kohn-Sham states=           10
     kinetic-energy cutoff     =      42.0000  Ry
     charge density cutoff     =      90.0000  Ry
     convergence threshold     =      1.0E-06
     mixing beta               =       0.1000
     number of iterations used =           10  TF        mixing
     Exchange-correlation      = SLA PW PBX PBC ( 1  4  3  4 0 0)

     celldm(1)=   4.040000  celldm(2)=   0.000000  celldm(3)=   0.000000
     celldm(4)=   0.000000  celldm(5)=   0.000000  celldm(6)=   0.000000

     crystal axes: (cart. coord. in units of alat)
               a(1) = (   1.000000   0.000000   0.000000 )  
               a(2) = (   0.000000   1.000000   0.000000 )  
               a(3) = (   0.000000   0.000000   1.000000 )  

     reciprocal axes: (cart. coord. in units 2 pi/alat)
               b(1) = (  1.000000  0.000000  0.000000 )  
               b(2) = (  0.000000  1.000000  0.000000 )  
               b(3) = (  0.000000  0.000000  1.000000 )  


     PseudoPot. # 1 for Al read from file:
     /opt/pp/Al.pbe-nl-kjpaw_psl.1.0.0.UPF
     MD5 check sum: 1b67f78b73fe58c7924490f171ce8a1e
     Pseudo is Projector augmented-wave + core cor, Zval =  3.0
     Generated using "atomic" code by A. Dal Corso v.6.3
     Shape of augmentation charge: PSQ
     Using radial grid of 1135 points,  4 beta functions with: 
                l(1) =   0
                l(2) =   0
                l(3) =   1
                l(4) =   1
     Q(r) pseudized with 0 coefficients 


     atomic species   valence    mass     pseudopotential
        Al             3.00    26.98200     Al( 1.00)

     No symmetry found



   Cartesian axes

     site n.     atom                  positions (alat units)
         1           Al  tau(   1) = (  -0.0001235   0.0000359   0.0002572  )
         2           Al  tau(   2) = (   0.5003009   0.4992819   0.0002658  )
         3           Al  tau(   3) = (   0.4996490   0.0001153   0.5011170  )
         4           Al  tau(   4) = (  -0.0000756   0.5008267   0.5006943  )

     number of k points=    14  Marzari-Vanderbilt smearing, width (Ry)=  0.0300
                       cart. coord. in units 2pi/alat
        k(    1) = (   0.1666667   0.1666667   0.1666667), wk =   0.1481481
        k(    2) = (   0.1666667   0.1666667  -0.5000000), wk =   0.1481481
        k(    3) = (   0.1666667  -0.5000000  -0.5000000), wk =   0.1481481
        k(    4) = (  -0.5000000  -0.5000000  -0.5000000), wk =   0.0740741
        k(    5) = (  -0.1666667  -0.1666667   0.1666667), wk =   0.1481481
        k(    6) = (  -0.1666667   0.1666667  -0.1666667), wk =   0.1481481
        k(    7) = (   0.1666667  -0.1666667  -0.1666667), wk =   0.1481481
        k(    8) = (  -0.1666667   0.1666667   0.5000000), wk =   0.1481481
        k(    9) = (  -0.5000000  -0.1666667   0.1666667), wk =   0.1481481
        k(   10) = (   0.5000000  -0.1666667  -0.1666667), wk =   0.1481481
        k(   11) = (  -0.1666667  -0.5000000   0.1666667), wk =   0.1481481
        k(   12) = (  -0.1666667   0.5000000  -0.1666667), wk =   0.1481481
        k(   13) = (  -0.5000000   0.1666667   0.5000000), wk =   0.1481481
        k(   14) = (  -0.5000000   0.5000000   0.1666667), wk =   0.1481481

     Dense  grid:      949 G-vectors     FFT dimensions: (  15,  15,  15)

     Estimated max dynamical RAM per process >       2.44 MB

     Initial potential from superposition of free atoms

     starting charge   11.99084, renormalised to   12.00000
     Starting wfcs are   16 randomized atomic wfcs
     Checking if some PAW data can be deallocated... 

     total cpu time spent up to now is        0.9 secs

     Self-consistent Calculation

     iteration #  1     ecut=    42.00 Ry     beta= 0.10
     Davidson diagonalization with overlap
     ethr =  1.00E-02,  avg # of iterations =  3.6

     total cpu time spent up to now is        1.2 secs

     total energy              =    -141.64986565 Ry
     Harris-Foulkes estimate   =    -141.80646743 Ry
     estimated scf accuracy    <       0.18721308 Ry

     iteration #  2     ecut=    42.00 Ry     beta= 0.10
     Davidson diagonalization with overlap
     ethr =  1.56E-03,  avg # of iterations =  1.2

     total cpu time spent up to now is        1.5 secs

     total energy              =    -141.15429061 Ry
     Harris-Foulkes estimate   =    -141.65358815 Ry
     estimated scf accuracy    <       0.16066570 Ry

     iteration #  3     ecut=    42.00 Ry     beta= 0.10
     Davidson diagonalization with overlap
     ethr =  1.34E-03,  avg # of iterations =  2.4

     total cpu time spent up to now is        1.9 secs

     total energy              =    -141.21596770 Ry
     Harris-Foulkes estimate   =    -141.25307212 Ry
     estimated scf accuracy    <       0.02207168 Ry

     iteration #  4     ecut=    42.00 Ry     beta= 0.10
     Davidson diagonalization with overlap
     ethr =  1.84E-04,  avg # of iterations =  1.7

     total cpu time spent up to now is        2.2 secs

     total energy              =    -141.22926349 Ry
     Harris-Foulkes estimate   =    -141.21823438 Ry
     estimated scf accuracy    <       0.01536762 Ry

     iteration #  5     ecut=    42.00 Ry     beta= 0.10
     Davidson diagonalization with overlap
     ethr =  1.28E-04,  avg # of iterations =  1.4

     total cpu time spent up to now is        2.5 secs

     total energy              =    -141.22268677 Ry
     Harris-Foulkes estimate   =    -141.23224951 Ry
     estimated scf accuracy    <       0.00103890 Ry

     iteration #  6     ecut=    42.00 Ry     beta= 0.10
     Davidson diagonalization with overlap
     ethr =  8.66E-06,  avg # of iterations =  2.0

     total cpu time spent up to now is        2.8 secs

     total energy              =    -141.22190698 Ry
     Harris-Foulkes estimate   =    -141.22304942 Ry
     estimated scf accuracy    <       0.00006763 Ry

     iteration #  7     ecut=    42.00 Ry     beta= 0.10
     Davidson diagonalization with overlap
     ethr =  5.64E-07,  avg # of iterations =  2.6

     total cpu time spent up to now is        3.1 secs

     total energy              =    -141.22196731 Ry
     Harris-Foulkes estimate   =    -141.22196988 Ry
     estimated scf accuracy    <       0.00007939 Ry

     iteration #  8     ecut=    42.00 Ry     beta= 0.10
     Davidson diagonalization with overlap
     ethr =  5.64E-07,  avg # of iterations =  1.0

     total cpu time spent up to now is        3.4 secs

     total energy              =    -141.22190727 Ry
     Harris-Foulkes estimate   =    -141.22196784 Ry
     estimated scf accuracy    <       0.00002146 Ry

     iteration #  9     ecut=    42.00 Ry     beta= 0.10
     Davidson diagonalization with overlap
     ethr =  1.79E-07,  avg # of iterations =  1.0

     total cpu time spent up to now is        3.7 secs

     total energy              =    -141.22188038 Ry
     Harris-Foulkes estimate   =    -141.22190940 Ry
     estimated scf accuracy    <       0.00000302 Ry

     iteration # 10     ecut=    42.00 Ry     beta= 0.10
     Davidson diagonalization with overlap
     ethr =  2.52E-08,  avg # of iterations =  3.9

     total cpu time spent up to now is        4.0 secs

     End of self-consistent calculation

          k = 0.1667 0.1667 0.1667 (   293 PWs)   bands (ev):

    32.0978  41.9611  41.9830  42.0067  52.3340  52.3586  52.3831  55.6996
    55.7088  55.7182

          k = 0.1667 0.1667-0.5000 (   302 PWs)   bands (ev):

    37.4206  37.4614  44.7660  44.7661  50.7761  50.7765  56.2505  56.2509
    57.3467  57.3904

          k = 0.1667-0.5000-0.5000 (   312 PWs)   bands (ev):

    41.7544  41.7626  41.8017  41.8093  51.9571  51.9672  51.9919  52.0021
    63.6873  63.6943

          k =-0.5000-0.5000-0.5000 (   304 PWs)   bands (ev):

    44.9435  44.9451  44.9465  44.9467  45.8006  45.8013  45.8031  45.8040
    75.1946  75.1967

          k =-0.1667-0.1667 0.1667 (   293 PWs)   bands (ev):

    32.0978  41.9658  41.9833  42.0017  52.3391  52.3585  52.3779  55.7015
    55.7089  55.7163

          k =-0.1667 0.1667-0.1667 (   293 PWs)   bands (ev):

    32.0978  41.9700  41.9841  41.9966  52.3442  52.3585  52.3729  55.7034
    55.7090  55.7144

          k = 0.1667-0.1667-0.1667 (   293 PWs)   bands (ev):

    32.0978  41.9678  41.9836  41.9994  52.3416  52.3586  52.3756  55.7024
    55.7089  55.7153

          k =-0.1667 0.1667 0.5000 (   302 PWs)   bands (ev):

    37.4206  37.4614  44.7661  44.7662  50.7761  50.7763  56.2504  56.2508
    57.3468  57.3905

          k =-0.5000-0.1667 0.1667 (   302 PWs)   bands (ev):

    37.4384  37.4435  44.7658  44.7665  50.7759  50.7762  56.2507  56.2512
    57.3660  57.3710

          k = 0.5000-0.1667-0.1667 (   302 PWs)   bands (ev):

    37.4384  37.4435  44.7658  44.7664  50.7761  50.7766  56.2497  56.2501
    57.3668  57.3719

          k =-0.1667-0.5000 0.1667 (   302 PWs)   bands (ev):

    37.4402  37.4416  44.7663  44.7664  50.7761  50.7763  56.2497  56.2508
    57.3680  57.3700

          k =-0.1667 0.5000-0.1667 (   302 PWs)   bands (ev):

    37.4403  37.4416  44.7662  44.7664  50.7760  50.7763  56.2502  56.2509
    57.3678  57.3696

          k =-0.5000 0.1667 0.5000 (   312 PWs)   bands (ev):

    41.7569  41.7661  41.7982  41.8066  51.9662  51.9761  51.9833  51.9929
    63.6911  63.6975

          k =-0.5000 0.5000 0.1667 (   312 PWs)   bands (ev):

    41.7618  41.7728  41.7912  41.8022  51.9530  51.9674  51.9917  52.0060
    63.6890  63.6978

     the Fermi energy is    52.2395 ev

!    total energy              =    -141.22188129 Ry
     Harris-Foulkes estimate   =    -141.22188544 Ry
     estimated scf accuracy    <       0.00000032 Ry

     total all-electron energy =     -1925.793003 Ry

     The total energy is the sum of the following terms:

     one-electron contribution =      58.79117019 Ry
     hartree contribution      =       0.22638385 Ry
     xc contribution           =     -17.30378246 Ry
     ewald contribution        =     -40.85514773 Ry
     one-center paw contrib.   =    -142.07121346 Ry
     smearing contrib. (-TS)   =      -0.00929168 Ry

     convergence has been achieved in  10 iterations

     Forces acting on atoms (cartesian axes, Ry/au):

     atom    1 type  1   force =     0.00169409   -0.00092740    0.01606172
     atom    2 type  1   force =     0.00051555   -0.00528676    0.01612160
     atom    3 type  1   force =    -0.00430980   -0.00012320   -0.01459401
     atom    4 type  1   force =     0.00210016    0.00633736   -0.01758932

     Total force =     0.033695     Total SCF correction =     0.000039


     Computing stress (Cartesian axis) and pressure

          total   stress  (Ry/bohr**3)                   (kbar)     P=60535.68
   0.41151794   0.00000282   0.00000145      60536.37      0.41      0.21
   0.00000282   0.41150934  -0.00000055          0.41  60535.10     -0.08
   0.00000145  -0.00000055   0.41151259          0.21     -0.08  60535.58


     Writing output data file fe_scf_fcc_2.save/

     init_run     :      0.44s CPU      0.46s WALL (       1 calls)
     electrons    :      3.03s CPU      3.12s WALL (       1 calls)
     forces       :      0.01s CPU      0.01s WALL (       1 calls)
     stress       :      0.04s CPU      0.04s WALL (       1 calls)

     Called by init_run:
     wfcinit      :      0.03s CPU      0.03s WALL (       1 calls)
     potinit      :      0.24s CPU      0.25s WALL (       1 calls)
     hinit0       :      0.17s CPU      0.17s WALL (       1 calls)

     Called by electrons:
     c_bands      :      0.51s CPU      0.53s WALL (      10 calls)
     sum_band     :      0.08s CPU      0.09s WALL (      10 calls)
     v_of_rho     :      0.02s CPU      0.02s WALL (      11 calls)
     newd         :      0.02s CPU      0.02s WALL (      11 calls)
     PAW_pot      :      2.63s CPU      2.71s WALL (      11 calls)
     mix_rho      :      0.00s CPU      0.00s WALL (      10 calls)

     Called by c_bands:
     init_us_2    :      0.03s CPU      0.03s WALL (     322 calls)
     cegterg      :      0.47s CPU      0.48s WALL (     140 calls)

     Called by sum_band:
     sum_band:bec :      0.00s CPU      0.00s WALL (     140 calls)
     addusdens    :      0.01s CPU      0.01s WALL (      10 calls)

     Called by *egterg:
     h_psi        :      0.35s CPU      0.31s WALL (     447 calls)
     s_psi        :      0.01s CPU      0.03s WALL (     447 calls)
     g_psi        :      0.01s CPU      0.01s WALL (     293 calls)
     cdiaghg      :      0.06s CPU      0.07s WALL (     433 calls)

     Called by h_psi:
     h_psi:pot    :      0.34s CPU      0.31s WALL (     447 calls)
     h_psi:calbec :      0.02s CPU      0.03s WALL (     447 calls)
     vloc_psi     :      0.26s CPU      0.25s WALL (     447 calls)
     add_vuspsi   :      0.04s CPU      0.03s WALL (     447 calls)

     General routines
     calbec       :      0.03s CPU      0.04s WALL (     657 calls)
     fft          :      0.00s CPU      0.00s WALL (     147 calls)
     ffts         :      0.00s CPU      0.00s WALL (      10 calls)
     fftw         :      0.24s CPU      0.25s WALL (    9022 calls)

     Parallel routines

     PWSCF        :     3.93s CPU         4.08s WALL


   This run was terminated on:   0:43:51  30Oct2019            

=------------------------------------------------------------------------------=
   JOB DONE.
=------------------------------------------------------------------------------=
