
     Program PWSCF v.6.4.1 starts on 24Feb2020 at 15:59:10 

     This program is part of the open-source Quantum ESPRESSO suite
     for quantum simulation of materials; please cite
         "P. Giannozzi et al., J. Phys.:Condens. Matter 21 395502 (2009);
         "P. Giannozzi et al., J. Phys.:Condens. Matter 29 465901 (2017);
          URL http://www.quantum-espresso.org", 
     in publications or presentations arising from this work. More details at
     http://www.quantum-espresso.org/quote

     Parallel version (MPI), running on     4 processors

     MPI processes distributed on     1 nodes
     R & G space division:  proc/nbgrp/npool/nimage =       4
     Reading input from /cloud/Code/python/py_pwscf_converge/src/example2/wd/runpwscf/file_10210.in
Warning: card &IONS ignored
Warning: card ION_DYNAMICS = 'BFGS', ignored
Warning: card / ignored
Warning: card &CELL ignored
Warning: card CELL_DYNAMICS = 'BFGS', ignored
Warning: card CELL_FACTOR = 2.0, ignored
Warning: card PRESS = 0.0, ignored
Warning: card / ignored

     Current dimensions of program PWSCF are:
     Max number of different atomic species (ntypx) = 10
     Max number of k-points (npk) =  40000
     Max angular momentum in pseudopotentials (lmaxx) =  3
               file Al.pbe-nl-kjpaw_psl.1.0.0.UPF: wavefunction(s)  3S 3P renormalized

     Subspace diagonalization in iterative solution of the eigenvalue problem:
     a serial algorithm will be used


     Parallelization info
     --------------------
     sticks:   dense  smooth     PW     G-vecs:    dense   smooth      PW
     Min         115     115     70                 1873     1873     893
     Max         117     117     72                 1875     1875     894
     Sum         465     465    285                 7497     7497    3575



     bravais-lattice index     =            0
     lattice parameter (alat)  =       7.6356  a.u.
     unit-cell volume          =     445.1737 (a.u.)^3
     number of atoms/cell      =            4
     number of atomic types    =            1
     number of electrons       =        12.00
     number of Kohn-Sham states=           10
     kinetic-energy cutoff     =      50.0000  Ry
     charge density cutoff     =     100.0000  Ry
     convergence threshold     =      1.0E-06
     mixing beta               =       0.1000
     number of iterations used =           10  TF        mixing
     Exchange-correlation      = SLA PW PBX PBC ( 1  4  3  4 0 0)

     celldm(1)=   7.635600  celldm(2)=   0.000000  celldm(3)=   0.000000
     celldm(4)=   0.000000  celldm(5)=   0.000000  celldm(6)=   0.000000

     crystal axes: (cart. coord. in units of alat)
               a(1) = (   1.000000   0.000000   0.000000 )  
               a(2) = (   0.000000   1.000000   0.000000 )  
               a(3) = (   0.000000   0.000000   1.000000 )  

     reciprocal axes: (cart. coord. in units 2 pi/alat)
               b(1) = (  1.000000  0.000000  0.000000 )  
               b(2) = (  0.000000  1.000000  0.000000 )  
               b(3) = (  0.000000  0.000000  1.000000 )  


     PseudoPot. # 1 for Al read from file:
     /opt/pp/Al.pbe-nl-kjpaw_psl.1.0.0.UPF
     MD5 check sum: 1b67f78b73fe58c7924490f171ce8a1e
     Pseudo is Projector augmented-wave + core cor, Zval =  3.0
     Generated using "atomic" code by A. Dal Corso v.6.3
     Shape of augmentation charge: PSQ
     Using radial grid of 1135 points,  4 beta functions with: 
                l(1) =   0
                l(2) =   0
                l(3) =   1
                l(4) =   1
     Q(r) pseudized with 0 coefficients 


     atomic species   valence    mass     pseudopotential
        Al             3.00    26.98200     Al( 1.00)

     No symmetry found



   Cartesian axes

     site n.     atom                  positions (alat units)
         1           Al  tau(   1) = (  -0.0000654   0.0000190   0.0001361  )
         2           Al  tau(   2) = (   0.5001592   0.4996200   0.0001406  )
         3           Al  tau(   3) = (   0.4998143   0.0000610   0.5005910  )
         4           Al  tau(   4) = (  -0.0000400   0.5004374   0.5003674  )

     number of k points=    14  Marzari-Vanderbilt smearing, width (Ry)=  0.0010
                       cart. coord. in units 2pi/alat
        k(    1) = (   0.1666667   0.1666667   0.1666667), wk =   0.1481481
        k(    2) = (   0.1666667   0.1666667  -0.5000000), wk =   0.1481481
        k(    3) = (   0.1666667  -0.5000000  -0.5000000), wk =   0.1481481
        k(    4) = (  -0.5000000  -0.5000000  -0.5000000), wk =   0.0740741
        k(    5) = (  -0.1666667  -0.1666667   0.1666667), wk =   0.1481481
        k(    6) = (  -0.1666667   0.1666667  -0.1666667), wk =   0.1481481
        k(    7) = (   0.1666667  -0.1666667  -0.1666667), wk =   0.1481481
        k(    8) = (  -0.1666667   0.1666667   0.5000000), wk =   0.1481481
        k(    9) = (  -0.5000000  -0.1666667   0.1666667), wk =   0.1481481
        k(   10) = (   0.5000000  -0.1666667  -0.1666667), wk =   0.1481481
        k(   11) = (  -0.1666667  -0.5000000   0.1666667), wk =   0.1481481
        k(   12) = (  -0.1666667   0.5000000  -0.1666667), wk =   0.1481481
        k(   13) = (  -0.5000000   0.1666667   0.5000000), wk =   0.1481481
        k(   14) = (  -0.5000000   0.5000000   0.1666667), wk =   0.1481481

     Dense  grid:     7497 G-vectors     FFT dimensions: (  25,  25,  25)

     Estimated max dynamical RAM per process >       4.85 MB

     Estimated total dynamical RAM >      19.40 MB

     Initial potential from superposition of free atoms

     starting charge   11.99084, renormalised to   12.00000
     Starting wfcs are   16 randomized atomic wfcs
     Checking if some PAW data can be deallocated... 

     total cpu time spent up to now is        0.7 secs

     Self-consistent Calculation

     iteration #  1     ecut=    50.00 Ry     beta= 0.10
     Davidson diagonalization with overlap
     ethr =  1.00E-02,  avg # of iterations =  2.9

     Threshold (ethr) on eigenvalues was too large:
     Diagonalizing with lowered threshold

     Davidson diagonalization with overlap
     ethr =  1.90E-04,  avg # of iterations =  2.3

     total cpu time spent up to now is        1.1 secs

     total energy              =    -158.04890980 Ry
     Harris-Foulkes estimate   =    -158.04965874 Ry
     estimated scf accuracy    <       0.02196329 Ry

     iteration #  2     ecut=    50.00 Ry     beta= 0.10
     Davidson diagonalization with overlap
     ethr =  1.83E-04,  avg # of iterations =  1.0

     total cpu time spent up to now is        1.3 secs

     total energy              =    -158.04346651 Ry
     Harris-Foulkes estimate   =    -158.04906768 Ry
     estimated scf accuracy    <       0.01892143 Ry

     iteration #  3     ecut=    50.00 Ry     beta= 0.10
     Davidson diagonalization with overlap
     ethr =  1.58E-04,  avg # of iterations =  1.0

     total cpu time spent up to now is        1.5 secs

     total energy              =    -158.04373821 Ry
     Harris-Foulkes estimate   =    -158.04380004 Ry
     estimated scf accuracy    <       0.00018315 Ry

     iteration #  4     ecut=    50.00 Ry     beta= 0.10
     Davidson diagonalization with overlap
     ethr =  1.53E-06,  avg # of iterations =  4.5

     total cpu time spent up to now is        1.8 secs

     total energy              =    -158.04375919 Ry
     Harris-Foulkes estimate   =    -158.04380125 Ry
     estimated scf accuracy    <       0.00011829 Ry

     iteration #  5     ecut=    50.00 Ry     beta= 0.10
     Davidson diagonalization with overlap
     ethr =  9.86E-07,  avg # of iterations =  2.4

     total cpu time spent up to now is        2.0 secs

     total energy              =    -158.04373437 Ry
     Harris-Foulkes estimate   =    -158.04377129 Ry
     estimated scf accuracy    <       0.00006113 Ry

     iteration #  6     ecut=    50.00 Ry     beta= 0.10
     Davidson diagonalization with overlap
     ethr =  5.09E-07,  avg # of iterations =  1.0

     total cpu time spent up to now is        2.2 secs

     total energy              =    -158.04373778 Ry
     Harris-Foulkes estimate   =    -158.04373739 Ry
     estimated scf accuracy    <       0.00000909 Ry

     iteration #  7     ecut=    50.00 Ry     beta= 0.10
     Davidson diagonalization with overlap
     ethr =  7.57E-08,  avg # of iterations =  1.3

     total cpu time spent up to now is        2.4 secs

     total energy              =    -158.04373870 Ry
     Harris-Foulkes estimate   =    -158.04373842 Ry
     estimated scf accuracy    <       0.00000497 Ry

     iteration #  8     ecut=    50.00 Ry     beta= 0.10
     Davidson diagonalization with overlap
     ethr =  4.15E-08,  avg # of iterations =  2.1

     total cpu time spent up to now is        2.6 secs

     End of self-consistent calculation

          k = 0.1667 0.1667 0.1667 (  2659 PWs)   bands (ev):

    -2.4780   3.3914   3.3915   3.3915   8.9398   8.9418   8.9441   9.4181
     9.4197   9.4217

          k = 0.1667 0.1667-0.5000 (  2672 PWs)   bands (ev):

    -0.4911  -0.4828   5.1701   5.1703   5.4431   5.4432  10.9094  10.9131
    10.9134  10.9189

          k = 0.1667-0.5000-0.5000 (  2636 PWs)   bands (ev):

     1.4728   1.4730   1.4810   1.4814   7.2037   7.2040   7.2124   7.2128
    13.0180  13.0223

          k =-0.5000-0.5000-0.5000 (  2608 PWs)   bands (ev):

     3.3118   3.3119   3.3120   3.3122   3.5312   3.5313   3.5314   3.5317
    19.3161  19.3162

          k =-0.1667-0.1667 0.1667 (  2659 PWs)   bands (ev):

    -2.4780   3.3913   3.3914   3.3916   8.9402   8.9418   8.9436   9.4186
     9.4198   9.4213

          k =-0.1667 0.1667-0.1667 (  2659 PWs)   bands (ev):

    -2.4780   3.3914   3.3915   3.3915   8.9406   8.9418   8.9431   9.4189
     9.4199   9.4210

          k = 0.1667-0.1667-0.1667 (  2659 PWs)   bands (ev):

    -2.4780   3.3913   3.3914   3.3916   8.9404   8.9417   8.9434   9.4187
     9.4198   9.4212

          k =-0.1667 0.1667 0.5000 (  2672 PWs)   bands (ev):

    -0.4911  -0.4828   5.1702   5.1703   5.4430   5.4432  10.9094  10.9132
    10.9134  10.9189

          k =-0.5000-0.1667 0.1667 (  2672 PWs)   bands (ev):

    -0.4874  -0.4865   5.1702   5.1704   5.4430   5.4431  10.9119  10.9127
    10.9147  10.9157

          k = 0.5000-0.1667-0.1667 (  2672 PWs)   bands (ev):

    -0.4874  -0.4865   5.1703   5.1703   5.4430   5.4432  10.9128  10.9133
    10.9139  10.9149

          k =-0.1667-0.5000 0.1667 (  2672 PWs)   bands (ev):

    -0.4871  -0.4868   5.1702   5.1704   5.4429   5.4432  10.9120  10.9131
    10.9142  10.9156

          k =-0.1667 0.5000-0.1667 (  2672 PWs)   bands (ev):

    -0.4871  -0.4868   5.1703   5.1703   5.4430   5.4431  10.9117  10.9132
    10.9143  10.9159

          k =-0.5000 0.1667 0.5000 (  2636 PWs)   bands (ev):

     1.4725   1.4733   1.4806   1.4817   7.2034   7.2043   7.2121   7.2132
    13.0168  13.0226

          k =-0.5000 0.5000 0.1667 (  2636 PWs)   bands (ev):

     1.4764   1.4767   1.4773   1.4777   7.2076   7.2079   7.2086   7.2090
    13.0203  13.0208

     the Fermi energy is     8.9325 ev

!    total energy              =    -158.04373957 Ry
     Harris-Foulkes estimate   =    -158.04373989 Ry
     estimated scf accuracy    <       0.00000049 Ry

     total all-electron energy =     -1942.614862 Ry

     The total energy is the sum of the following terms:

     one-electron contribution =      12.62569187 Ry
     hartree contribution      =       0.02532168 Ry
     xc contribution           =     -10.36591558 Ry
     ewald contribution        =     -21.61650270 Ry
     one-center paw contrib.   =    -138.71219314 Ry
     smearing contrib. (-TS)   =      -0.00014170 Ry

     convergence has been achieved in   8 iterations

     Forces acting on atoms (cartesian axes, Ry/au):

     atom    1 type  1   force =     0.00001711   -0.00008060    0.00039949
     atom    2 type  1   force =     0.00038150   -0.00094731    0.00039966
     atom    3 type  1   force =    -0.00049196    0.00005920   -0.00015035
     atom    4 type  1   force =     0.00009336    0.00096870   -0.00064880

     Total force =     0.001734     Total SCF correction =     0.000084


     Computing stress (Cartesian axis) and pressure

          total   stress  (Ry/bohr**3)                   (kbar)     P=   -1.97
  -0.00001342  -0.00000078  -0.00000028         -1.97     -0.12     -0.04
  -0.00000078  -0.00001331  -0.00000037         -0.12     -1.96     -0.05
  -0.00000028  -0.00000037  -0.00001336         -0.04     -0.05     -1.96


     Writing output data file fe_scf_fcc_2.save/

     init_run     :      0.21s CPU      0.21s WALL (       1 calls)
     electrons    :      1.79s CPU      1.92s WALL (       1 calls)
     forces       :      0.04s CPU      0.04s WALL (       1 calls)
     stress       :      0.08s CPU      0.08s WALL (       1 calls)

     Called by init_run:
     wfcinit      :      0.10s CPU      0.11s WALL (       1 calls)
     potinit      :      0.05s CPU      0.05s WALL (       1 calls)
     hinit0       :      0.05s CPU      0.05s WALL (       1 calls)

     Called by electrons:
     c_bands      :      1.23s CPU      1.32s WALL (       9 calls)
     sum_band     :      0.18s CPU      0.20s WALL (       9 calls)
     v_of_rho     :      0.02s CPU      0.02s WALL (       9 calls)
     newd         :      0.01s CPU      0.02s WALL (       9 calls)
     PAW_pot      :      0.39s CPU      0.41s WALL (       9 calls)
     mix_rho      :      0.00s CPU      0.00s WALL (       9 calls)

     Called by c_bands:
     init_us_2    :      0.04s CPU      0.05s WALL (     294 calls)
     cegterg      :      1.15s CPU      1.24s WALL (     126 calls)

     Called by sum_band:
     sum_band:bec :      0.00s CPU      0.00s WALL (     126 calls)
     addusdens    :      0.01s CPU      0.01s WALL (       9 calls)

     Called by *egterg:
     h_psi        :      0.77s CPU      0.84s WALL (     398 calls)
     s_psi        :      0.10s CPU      0.11s WALL (     398 calls)
     g_psi        :      0.00s CPU      0.01s WALL (     258 calls)
     cdiaghg      :      0.06s CPU      0.07s WALL (     370 calls)

     Called by h_psi:
     h_psi:pot    :      0.77s CPU      0.83s WALL (     398 calls)
     h_psi:calbec :      0.15s CPU      0.16s WALL (     398 calls)
     vloc_psi     :      0.52s CPU      0.56s WALL (     398 calls)
     add_vuspsi   :      0.10s CPU      0.11s WALL (     398 calls)

     General routines
     calbec       :      0.24s CPU      0.26s WALL (     594 calls)
     fft          :      0.01s CPU      0.01s WALL (     125 calls)
     ffts         :      0.00s CPU      0.00s WALL (       9 calls)
     fftw         :      0.56s CPU      0.61s WALL (    7814 calls)

     Parallel routines
     fft_scatt_xy :      0.06s CPU      0.07s WALL (    7948 calls)
     fft_scatt_yz :      0.30s CPU      0.33s WALL (    7948 calls)

     PWSCF        :      2.58s CPU      2.76s WALL


   This run was terminated on:  15:59:13  24Feb2020            

=------------------------------------------------------------------------------=
   JOB DONE.
=------------------------------------------------------------------------------=
