
     Program PWSCF v.6.3 starts on 30Oct2019 at  0:47:22 

     This program is part of the open-source Quantum ESPRESSO suite
     for quantum simulation of materials; please cite
         "P. Giannozzi et al., J. Phys.:Condens. Matter 21 395502 (2009);
         "P. Giannozzi et al., J. Phys.:Condens. Matter 29 465901 (2017);
          URL http://www.quantum-espresso.org", 
     in publications or presentations arising from this work. More details at
     http://www.quantum-espresso.org/quote

     Parallel version (MPI), running on     1 processors

     MPI processes distributed on     1 nodes
     Reading input from /cloud/Code/python/py_pwscf_converge/src/example2/wd/runpwscf/file_10285.in
Warning: card &IONS ignored
Warning: card ION_DYNAMICS = 'BFGS', ignored
Warning: card / ignored
Warning: card &CELL ignored
Warning: card CELL_DYNAMICS = 'BFGS', ignored
Warning: card CELL_FACTOR = 2.0, ignored
Warning: card PRESS = 0.0, ignored
Warning: card / ignored

     Current dimensions of program PWSCF are:
     Max number of different atomic species (ntypx) = 10
     Max number of k-points (npk) =  40000
     Max angular momentum in pseudopotentials (lmaxx) =  3
               file Al.pbe-nl-kjpaw_psl.1.0.0.UPF: wavefunction(s)  3S 3P renormalized

     Subspace diagonalization in iterative solution of the eigenvalue problem:
     a serial algorithm will be used


     G-vector sticks info
     --------------------
     sticks:   dense  smooth     PW     G-vecs:    dense   smooth      PW
     Sum         121     121     81                  949      949     515



     bravais-lattice index     =            0
     lattice parameter (alat)  =       4.0400  a.u.
     unit-cell volume          =      65.9393 (a.u.)^3
     number of atoms/cell      =            4
     number of atomic types    =            1
     number of electrons       =        12.00
     number of Kohn-Sham states=           10
     kinetic-energy cutoff     =      42.0000  Ry
     charge density cutoff     =      90.0000  Ry
     convergence threshold     =      1.0E-06
     mixing beta               =       0.1000
     number of iterations used =           10  TF        mixing
     Exchange-correlation      = SLA PW PBX PBC ( 1  4  3  4 0 0)

     celldm(1)=   4.040000  celldm(2)=   0.000000  celldm(3)=   0.000000
     celldm(4)=   0.000000  celldm(5)=   0.000000  celldm(6)=   0.000000

     crystal axes: (cart. coord. in units of alat)
               a(1) = (   1.000000   0.000000   0.000000 )  
               a(2) = (   0.000000   1.000000   0.000000 )  
               a(3) = (   0.000000   0.000000   1.000000 )  

     reciprocal axes: (cart. coord. in units 2 pi/alat)
               b(1) = (  1.000000  0.000000  0.000000 )  
               b(2) = (  0.000000  1.000000  0.000000 )  
               b(3) = (  0.000000  0.000000  1.000000 )  


     PseudoPot. # 1 for Al read from file:
     /opt/pp/Al.pbe-nl-kjpaw_psl.1.0.0.UPF
     MD5 check sum: 1b67f78b73fe58c7924490f171ce8a1e
     Pseudo is Projector augmented-wave + core cor, Zval =  3.0
     Generated using "atomic" code by A. Dal Corso v.6.3
     Shape of augmentation charge: PSQ
     Using radial grid of 1135 points,  4 beta functions with: 
                l(1) =   0
                l(2) =   0
                l(3) =   1
                l(4) =   1
     Q(r) pseudized with 0 coefficients 


     atomic species   valence    mass     pseudopotential
        Al             3.00    26.98200     Al( 1.00)

     No symmetry found



   Cartesian axes

     site n.     atom                  positions (alat units)
         1           Al  tau(   1) = (  -0.0001235   0.0000359   0.0002572  )
         2           Al  tau(   2) = (   0.5003009   0.4992819   0.0002658  )
         3           Al  tau(   3) = (   0.4996490   0.0001153   0.5011170  )
         4           Al  tau(   4) = (  -0.0000756   0.5008267   0.5006943  )

     number of k points=   172  Marzari-Vanderbilt smearing, width (Ry)=  0.0400

     Number of k-points >= 100: set verbosity='high' to print them.

     Dense  grid:      949 G-vectors     FFT dimensions: (  15,  15,  15)

     Estimated max dynamical RAM per process >       9.75 MB

     Initial potential from superposition of free atoms

     starting charge   11.99084, renormalised to   12.00000
     Starting wfcs are   16 randomized atomic wfcs
     Checking if some PAW data can be deallocated... 

     total cpu time spent up to now is        1.3 secs

     Self-consistent Calculation

     iteration #  1     ecut=    42.00 Ry     beta= 0.10
     Davidson diagonalization with overlap
     ethr =  1.00E-02,  avg # of iterations =  4.9

     total cpu time spent up to now is        2.7 secs

     total energy              =    -141.65969978 Ry
     Harris-Foulkes estimate   =    -141.81384368 Ry
     estimated scf accuracy    <       0.18284776 Ry

     iteration #  2     ecut=    42.00 Ry     beta= 0.10
     Davidson diagonalization with overlap
     ethr =  1.52E-03,  avg # of iterations =  1.1

     total cpu time spent up to now is        3.5 secs

     total energy              =    -141.17178614 Ry
     Harris-Foulkes estimate   =    -141.66323165 Ry
     estimated scf accuracy    <       0.15332784 Ry

     iteration #  3     ecut=    42.00 Ry     beta= 0.10
     Davidson diagonalization with overlap
     ethr =  1.28E-03,  avg # of iterations =  2.1

     total cpu time spent up to now is        4.5 secs

     total energy              =    -141.24669387 Ry
     Harris-Foulkes estimate   =    -141.25376926 Ry
     estimated scf accuracy    <       0.01552584 Ry

     iteration #  4     ecut=    42.00 Ry     beta= 0.10
     Davidson diagonalization with overlap
     ethr =  1.29E-04,  avg # of iterations =  1.2

     total cpu time spent up to now is        5.2 secs

     total energy              =    -141.24956891 Ry
     Harris-Foulkes estimate   =    -141.24714049 Ry
     estimated scf accuracy    <       0.01196629 Ry

     iteration #  5     ecut=    42.00 Ry     beta= 0.10
     Davidson diagonalization with overlap
     ethr =  9.97E-05,  avg # of iterations =  2.0

     total cpu time spent up to now is        6.1 secs

     total energy              =    -141.25112835 Ry
     Harris-Foulkes estimate   =    -141.25093723 Ry
     estimated scf accuracy    <       0.00060188 Ry

     iteration #  6     ecut=    42.00 Ry     beta= 0.10
     Davidson diagonalization with overlap
     ethr =  5.02E-06,  avg # of iterations =  2.7

     total cpu time spent up to now is        7.0 secs

     total energy              =    -141.25100198 Ry
     Harris-Foulkes estimate   =    -141.25121699 Ry
     estimated scf accuracy    <       0.00029314 Ry

     iteration #  7     ecut=    42.00 Ry     beta= 0.10
     Davidson diagonalization with overlap
     ethr =  2.44E-06,  avg # of iterations =  1.2

     total cpu time spent up to now is        7.8 secs

     total energy              =    -141.25098737 Ry
     Harris-Foulkes estimate   =    -141.25101251 Ry
     estimated scf accuracy    <       0.00040936 Ry

     iteration #  8     ecut=    42.00 Ry     beta= 0.10
     Davidson diagonalization with overlap
     ethr =  2.44E-06,  avg # of iterations =  1.0

     total cpu time spent up to now is        8.6 secs

     total energy              =    -141.25098757 Ry
     Harris-Foulkes estimate   =    -141.25099506 Ry
     estimated scf accuracy    <       0.00001728 Ry

     iteration #  9     ecut=    42.00 Ry     beta= 0.10
     Davidson diagonalization with overlap
     ethr =  1.44E-07,  avg # of iterations =  1.3

     total cpu time spent up to now is        9.4 secs

     total energy              =    -141.25098776 Ry
     Harris-Foulkes estimate   =    -141.25098852 Ry
     estimated scf accuracy    <       0.00002273 Ry

     iteration # 10     ecut=    42.00 Ry     beta= 0.10
     Davidson diagonalization with overlap
     ethr =  1.44E-07,  avg # of iterations =  1.0

     total cpu time spent up to now is       10.2 secs

     total energy              =    -141.25097940 Ry
     Harris-Foulkes estimate   =    -141.25098793 Ry
     estimated scf accuracy    <       0.00002276 Ry

     iteration # 11     ecut=    42.00 Ry     beta= 0.10
     Davidson diagonalization with overlap
     ethr =  1.44E-07,  avg # of iterations =  1.0

     total cpu time spent up to now is       11.0 secs

     total energy              =    -141.25095668 Ry
     Harris-Foulkes estimate   =    -141.25097963 Ry
     estimated scf accuracy    <       0.00001903 Ry

     iteration # 12     ecut=    42.00 Ry     beta= 0.10
     Davidson diagonalization with overlap
     ethr =  1.44E-07,  avg # of iterations =  2.0

     total cpu time spent up to now is       11.9 secs

     total energy              =    -141.25096140 Ry
     Harris-Foulkes estimate   =    -141.25096188 Ry
     estimated scf accuracy    <       0.00000167 Ry

     iteration # 13     ecut=    42.00 Ry     beta= 0.10
     Davidson diagonalization with overlap
     ethr =  1.39E-08,  avg # of iterations =  1.9

     total cpu time spent up to now is       12.7 secs

     total energy              =    -141.25096114 Ry
     Harris-Foulkes estimate   =    -141.25096157 Ry
     estimated scf accuracy    <       0.00000189 Ry

     iteration # 14     ecut=    42.00 Ry     beta= 0.10
     Davidson diagonalization with overlap
     ethr =  1.39E-08,  avg # of iterations =  2.0

     total cpu time spent up to now is       13.6 secs

     total energy              =    -141.25096150 Ry
     Harris-Foulkes estimate   =    -141.25096167 Ry
     estimated scf accuracy    <       0.00000137 Ry

     iteration # 15     ecut=    42.00 Ry     beta= 0.10
     Davidson diagonalization with overlap
     ethr =  1.14E-08,  avg # of iterations =  1.0

     total cpu time spent up to now is       14.4 secs

     End of self-consistent calculation

     Number of k-points >= 100: set verbosity='high' to print the bands.

     the Fermi energy is    52.7875 ev

!    total energy              =    -141.25096134 Ry
     Harris-Foulkes estimate   =    -141.25096155 Ry
     estimated scf accuracy    <       0.00000065 Ry

     total all-electron energy =     -1925.822083 Ry

     The total energy is the sum of the following terms:

     one-electron contribution =      58.66297965 Ry
     hartree contribution      =       0.21739500 Ry
     xc contribution           =     -17.28718541 Ry
     ewald contribution        =     -40.85514773 Ry
     one-center paw contrib.   =    -141.98721192 Ry
     smearing contrib. (-TS)   =      -0.00179091 Ry

     convergence has been achieved in  15 iterations

     Forces acting on atoms (cartesian axes, Ry/au):

     atom    1 type  1   force =     0.00207727   -0.00030847    0.01645096
     atom    2 type  1   force =    -0.00434254    0.00630745    0.01639717
     atom    3 type  1   force =     0.00054455   -0.00079092   -0.01802471
     atom    4 type  1   force =     0.00172072   -0.00520805   -0.01482342

     Total force =     0.034325     Total SCF correction =     0.000096


     Computing stress (Cartesian axis) and pressure

          total   stress  (Ry/bohr**3)                   (kbar)     P=59685.70
   0.40573901   0.00000103   0.00000086      59686.26      0.15      0.13
   0.00000103   0.40573115  -0.00000115          0.15  59685.10     -0.17
   0.00000086  -0.00000115   0.40573541          0.13     -0.17  59685.73


     Writing output data file fe_scf_fcc_2.save/

     init_run     :      0.80s CPU      0.82s WALL (       1 calls)
     electrons    :     12.78s CPU     13.14s WALL (       1 calls)
     forces       :      0.10s CPU      0.10s WALL (       1 calls)
     stress       :      0.35s CPU      0.35s WALL (       1 calls)

     Called by init_run:
     wfcinit      :      0.39s CPU      0.40s WALL (       1 calls)
     potinit      :      0.23s CPU      0.25s WALL (       1 calls)
     hinit0       :      0.18s CPU      0.18s WALL (       1 calls)

     Called by electrons:
     c_bands      :      7.89s CPU      8.08s WALL (      15 calls)
     sum_band     :      1.28s CPU      1.34s WALL (      15 calls)
     v_of_rho     :      0.04s CPU      0.03s WALL (      16 calls)
     newd         :      0.02s CPU      0.02s WALL (      16 calls)
     PAW_pot      :      3.77s CPU      3.90s WALL (      16 calls)
     mix_rho      :      0.00s CPU      0.00s WALL (      15 calls)

     Called by c_bands:
     init_us_2    :      0.52s CPU      0.56s WALL (    5676 calls)
     cegterg      :      7.02s CPU      7.22s WALL (    2580 calls)

     Called by sum_band:
     sum_band:bec :      0.02s CPU      0.02s WALL (    2580 calls)
     addusdens    :      0.00s CPU      0.02s WALL (      15 calls)

     Called by *egterg:
     h_psi        :      4.68s CPU      4.84s WALL (    7286 calls)
     s_psi        :      0.40s CPU      0.46s WALL (    7286 calls)
     g_psi        :      0.08s CPU      0.08s WALL (    4534 calls)
     cdiaghg      :      1.03s CPU      1.02s WALL (    7114 calls)

     Called by h_psi:
     h_psi:pot    :      4.64s CPU      4.80s WALL (    7286 calls)
     h_psi:calbec :      0.46s CPU      0.44s WALL (    7286 calls)
     vloc_psi     :      3.64s CPU      3.86s WALL (    7286 calls)
     add_vuspsi   :      0.52s CPU      0.47s WALL (    7286 calls)

     General routines
     calbec       :      0.69s CPU      0.66s WALL (   10726 calls)
     fft          :      0.02s CPU      0.01s WALL (     202 calls)
     ffts         :      0.00s CPU      0.00s WALL (      15 calls)
     fftw         :      3.68s CPU      3.88s WALL (  149728 calls)

     Parallel routines

     PWSCF        :    14.50s CPU        14.91s WALL


   This run was terminated on:   0:47:37  30Oct2019            

=------------------------------------------------------------------------------=
   JOB DONE.
=------------------------------------------------------------------------------=
