
     Program PWSCF v.6.3 starts on 30Oct2019 at  0:46:26 

     This program is part of the open-source Quantum ESPRESSO suite
     for quantum simulation of materials; please cite
         "P. Giannozzi et al., J. Phys.:Condens. Matter 21 395502 (2009);
         "P. Giannozzi et al., J. Phys.:Condens. Matter 29 465901 (2017);
          URL http://www.quantum-espresso.org", 
     in publications or presentations arising from this work. More details at
     http://www.quantum-espresso.org/quote

     Parallel version (MPI), running on     1 processors

     MPI processes distributed on     1 nodes
     Reading input from /cloud/Code/python/py_pwscf_converge/src/example2/wd/runpwscf/file_10282.in
Warning: card &IONS ignored
Warning: card ION_DYNAMICS = 'BFGS', ignored
Warning: card / ignored
Warning: card &CELL ignored
Warning: card CELL_DYNAMICS = 'BFGS', ignored
Warning: card CELL_FACTOR = 2.0, ignored
Warning: card PRESS = 0.0, ignored
Warning: card / ignored

     Current dimensions of program PWSCF are:
     Max number of different atomic species (ntypx) = 10
     Max number of k-points (npk) =  40000
     Max angular momentum in pseudopotentials (lmaxx) =  3
               file Al.pbe-nl-kjpaw_psl.1.0.0.UPF: wavefunction(s)  3S 3P renormalized

     Subspace diagonalization in iterative solution of the eigenvalue problem:
     a serial algorithm will be used


     G-vector sticks info
     --------------------
     sticks:   dense  smooth     PW     G-vecs:    dense   smooth      PW
     Sum         121     121     81                  949      949     515



     bravais-lattice index     =            0
     lattice parameter (alat)  =       4.0400  a.u.
     unit-cell volume          =      65.9393 (a.u.)^3
     number of atoms/cell      =            4
     number of atomic types    =            1
     number of electrons       =        12.00
     number of Kohn-Sham states=           10
     kinetic-energy cutoff     =      42.0000  Ry
     charge density cutoff     =      90.0000  Ry
     convergence threshold     =      1.0E-06
     mixing beta               =       0.1000
     number of iterations used =           10  TF        mixing
     Exchange-correlation      = SLA PW PBX PBC ( 1  4  3  4 0 0)

     celldm(1)=   4.040000  celldm(2)=   0.000000  celldm(3)=   0.000000
     celldm(4)=   0.000000  celldm(5)=   0.000000  celldm(6)=   0.000000

     crystal axes: (cart. coord. in units of alat)
               a(1) = (   1.000000   0.000000   0.000000 )  
               a(2) = (   0.000000   1.000000   0.000000 )  
               a(3) = (   0.000000   0.000000   1.000000 )  

     reciprocal axes: (cart. coord. in units 2 pi/alat)
               b(1) = (  1.000000  0.000000  0.000000 )  
               b(2) = (  0.000000  1.000000  0.000000 )  
               b(3) = (  0.000000  0.000000  1.000000 )  


     PseudoPot. # 1 for Al read from file:
     /opt/pp/Al.pbe-nl-kjpaw_psl.1.0.0.UPF
     MD5 check sum: 1b67f78b73fe58c7924490f171ce8a1e
     Pseudo is Projector augmented-wave + core cor, Zval =  3.0
     Generated using "atomic" code by A. Dal Corso v.6.3
     Shape of augmentation charge: PSQ
     Using radial grid of 1135 points,  4 beta functions with: 
                l(1) =   0
                l(2) =   0
                l(3) =   1
                l(4) =   1
     Q(r) pseudized with 0 coefficients 


     atomic species   valence    mass     pseudopotential
        Al             3.00    26.98200     Al( 1.00)

     No symmetry found



   Cartesian axes

     site n.     atom                  positions (alat units)
         1           Al  tau(   1) = (  -0.0001235   0.0000359   0.0002572  )
         2           Al  tau(   2) = (   0.5003009   0.4992819   0.0002658  )
         3           Al  tau(   3) = (   0.4996490   0.0001153   0.5011170  )
         4           Al  tau(   4) = (  -0.0000756   0.5008267   0.5006943  )

     number of k points=   172  Marzari-Vanderbilt smearing, width (Ry)=  0.0100

     Number of k-points >= 100: set verbosity='high' to print them.

     Dense  grid:      949 G-vectors     FFT dimensions: (  15,  15,  15)

     Estimated max dynamical RAM per process >       9.75 MB

     Initial potential from superposition of free atoms

     starting charge   11.99084, renormalised to   12.00000
     Starting wfcs are   16 randomized atomic wfcs
     Checking if some PAW data can be deallocated... 

     total cpu time spent up to now is        1.3 secs

     Self-consistent Calculation

     iteration #  1     ecut=    42.00 Ry     beta= 0.10
     Davidson diagonalization with overlap
     ethr =  1.00E-02,  avg # of iterations =  4.9

     total cpu time spent up to now is        2.7 secs

     total energy              =    -141.65809165 Ry
     Harris-Foulkes estimate   =    -141.81248875 Ry
     estimated scf accuracy    <       0.18282988 Ry

     iteration #  2     ecut=    42.00 Ry     beta= 0.10
     Davidson diagonalization with overlap
     ethr =  1.52E-03,  avg # of iterations =  1.1

     total cpu time spent up to now is        3.5 secs

     total energy              =    -141.16915244 Ry
     Harris-Foulkes estimate   =    -141.66158686 Ry
     estimated scf accuracy    <       0.15285960 Ry

     iteration #  3     ecut=    42.00 Ry     beta= 0.10
     Davidson diagonalization with overlap
     ethr =  1.27E-03,  avg # of iterations =  2.1

     total cpu time spent up to now is        4.4 secs

     total energy              =    -141.24593714 Ry
     Harris-Foulkes estimate   =    -141.25064711 Ry
     estimated scf accuracy    <       0.01559078 Ry

     iteration #  4     ecut=    42.00 Ry     beta= 0.10
     Davidson diagonalization with overlap
     ethr =  1.30E-04,  avg # of iterations =  1.2

     total cpu time spent up to now is        5.2 secs

     total energy              =    -141.24899014 Ry
     Harris-Foulkes estimate   =    -141.24630359 Ry
     estimated scf accuracy    <       0.01196679 Ry

     iteration #  5     ecut=    42.00 Ry     beta= 0.10
     Davidson diagonalization with overlap
     ethr =  9.97E-05,  avg # of iterations =  2.0

     total cpu time spent up to now is        6.1 secs

     total energy              =    -141.25028337 Ry
     Harris-Foulkes estimate   =    -141.25026219 Ry
     estimated scf accuracy    <       0.00074181 Ry

     iteration #  6     ecut=    42.00 Ry     beta= 0.10
     Davidson diagonalization with overlap
     ethr =  6.18E-06,  avg # of iterations =  2.4

     total cpu time spent up to now is        7.0 secs

     total energy              =    -141.25028370 Ry
     Harris-Foulkes estimate   =    -141.25035631 Ry
     estimated scf accuracy    <       0.00040243 Ry

     iteration #  7     ecut=    42.00 Ry     beta= 0.10
     Davidson diagonalization with overlap
     ethr =  3.35E-06,  avg # of iterations =  1.1

     total cpu time spent up to now is        7.8 secs

     total energy              =    -141.25039096 Ry
     Harris-Foulkes estimate   =    -141.25029174 Ry
     estimated scf accuracy    <       0.00053195 Ry

     iteration #  8     ecut=    42.00 Ry     beta= 0.10
     Davidson diagonalization with overlap
     ethr =  3.35E-06,  avg # of iterations =  1.0

     total cpu time spent up to now is        8.6 secs

     total energy              =    -141.25032573 Ry
     Harris-Foulkes estimate   =    -141.25040202 Ry
     estimated scf accuracy    <       0.00001711 Ry

     iteration #  9     ecut=    42.00 Ry     beta= 0.10
     Davidson diagonalization with overlap
     ethr =  1.43E-07,  avg # of iterations =  2.1

     total cpu time spent up to now is        9.5 secs

     total energy              =    -141.25033017 Ry
     Harris-Foulkes estimate   =    -141.25033008 Ry
     estimated scf accuracy    <       0.00004977 Ry

     iteration # 10     ecut=    42.00 Ry     beta= 0.10
     Davidson diagonalization with overlap
     ethr =  1.43E-07,  avg # of iterations =  1.0

     total cpu time spent up to now is       10.3 secs

     total energy              =    -141.25033296 Ry
     Harris-Foulkes estimate   =    -141.25033022 Ry
     estimated scf accuracy    <       0.00004959 Ry

     iteration # 11     ecut=    42.00 Ry     beta= 0.10
     Davidson diagonalization with overlap
     ethr =  1.43E-07,  avg # of iterations =  1.0

     total cpu time spent up to now is       11.0 secs

     total energy              =    -141.25030088 Ry
     Harris-Foulkes estimate   =    -141.25033322 Ry
     estimated scf accuracy    <       0.00005654 Ry

     iteration # 12     ecut=    42.00 Ry     beta= 0.10
     Davidson diagonalization with overlap
     ethr =  1.43E-07,  avg # of iterations =  2.0

     total cpu time spent up to now is       12.0 secs

     total energy              =    -141.25030811 Ry
     Harris-Foulkes estimate   =    -141.25030600 Ry
     estimated scf accuracy    <       0.00000285 Ry

     iteration # 13     ecut=    42.00 Ry     beta= 0.10
     Davidson diagonalization with overlap
     ethr =  2.37E-08,  avg # of iterations =  1.2

     total cpu time spent up to now is       12.7 secs

     total energy              =    -141.25030410 Ry
     Harris-Foulkes estimate   =    -141.25030831 Ry
     estimated scf accuracy    <       0.00000157 Ry

     iteration # 14     ecut=    42.00 Ry     beta= 0.10
     Davidson diagonalization with overlap
     ethr =  1.30E-08,  avg # of iterations =  2.5

     total cpu time spent up to now is       13.7 secs

     total energy              =    -141.25030683 Ry
     Harris-Foulkes estimate   =    -141.25030554 Ry
     estimated scf accuracy    <       0.00000379 Ry

     iteration # 15     ecut=    42.00 Ry     beta= 0.10
     Davidson diagonalization with overlap
     ethr =  1.30E-08,  avg # of iterations =  1.0

     total cpu time spent up to now is       14.5 secs

     total energy              =    -141.25030632 Ry
     Harris-Foulkes estimate   =    -141.25030693 Ry
     estimated scf accuracy    <       0.00000467 Ry

     iteration # 16     ecut=    42.00 Ry     beta= 0.10
     Davidson diagonalization with overlap
     ethr =  1.30E-08,  avg # of iterations =  1.0

     total cpu time spent up to now is       15.3 secs

     total energy              =    -141.25030537 Ry
     Harris-Foulkes estimate   =    -141.25030642 Ry
     estimated scf accuracy    <       0.00000172 Ry

     iteration # 17     ecut=    42.00 Ry     beta= 0.10
     Davidson diagonalization with overlap
     ethr =  1.30E-08,  avg # of iterations =  1.0

     total cpu time spent up to now is       16.0 secs

     End of self-consistent calculation

     Number of k-points >= 100: set verbosity='high' to print the bands.

     the Fermi energy is    52.7482 ev

!    total energy              =    -141.25030516 Ry
     Harris-Foulkes estimate   =    -141.25030544 Ry
     estimated scf accuracy    <       0.00000038 Ry

     total all-electron energy =     -1925.821427 Ry

     The total energy is the sum of the following terms:

     one-electron contribution =      58.67188839 Ry
     hartree contribution      =       0.21620089 Ry
     xc contribution           =     -17.28799136 Ry
     ewald contribution        =     -40.85514773 Ry
     one-center paw contrib.   =    -141.99496487 Ry
     smearing contrib. (-TS)   =      -0.00029047 Ry

     convergence has been achieved in  17 iterations

     Forces acting on atoms (cartesian axes, Ry/au):

     atom    1 type  1   force =     0.00205635   -0.00025644    0.01657202
     atom    2 type  1   force =    -0.00437368    0.00648363    0.01649794
     atom    3 type  1   force =     0.00062081   -0.00086303   -0.01815119
     atom    4 type  1   force =     0.00169652   -0.00536416   -0.01491877

     Total force =     0.034599     Total SCF correction =     0.000018


     Computing stress (Cartesian axis) and pressure

          total   stress  (Ry/bohr**3)                   (kbar)     P=59745.03
   0.40614245   0.00000121   0.00000084      59745.61      0.18      0.12
   0.00000121   0.40613362  -0.00000130          0.18  59744.31     -0.19
   0.00000084  -0.00000130   0.40613955          0.12     -0.19  59745.18


     Writing output data file fe_scf_fcc_2.save/

     init_run     :      0.82s CPU      0.83s WALL (       1 calls)
     electrons    :     14.38s CPU     14.76s WALL (       1 calls)
     forces       :      0.10s CPU      0.09s WALL (       1 calls)
     stress       :      0.35s CPU      0.35s WALL (       1 calls)

     Called by init_run:
     wfcinit      :      0.38s CPU      0.39s WALL (       1 calls)
     potinit      :      0.24s CPU      0.25s WALL (       1 calls)
     hinit0       :      0.18s CPU      0.19s WALL (       1 calls)

     Called by electrons:
     c_bands      :      8.84s CPU      9.04s WALL (      17 calls)
     sum_band     :      1.47s CPU      1.52s WALL (      17 calls)
     v_of_rho     :      0.03s CPU      0.04s WALL (      18 calls)
     newd         :      0.01s CPU      0.03s WALL (      18 calls)
     PAW_pot      :      4.27s CPU      4.38s WALL (      18 calls)
     mix_rho      :      0.00s CPU      0.00s WALL (      17 calls)

     Called by c_bands:
     init_us_2    :      0.72s CPU      0.63s WALL (    6364 calls)
     cegterg      :      7.84s CPU      8.07s WALL (    2924 calls)

     Called by sum_band:
     sum_band:bec :      0.02s CPU      0.02s WALL (    2924 calls)
     addusdens    :      0.02s CPU      0.02s WALL (      17 calls)

     Called by *egterg:
     h_psi        :      5.31s CPU      5.41s WALL (    8016 calls)
     s_psi        :      0.48s CPU      0.51s WALL (    8016 calls)
     g_psi        :      0.10s CPU      0.09s WALL (    4920 calls)
     cdiaghg      :      1.04s CPU      1.11s WALL (    7844 calls)

     Called by h_psi:
     h_psi:pot    :      5.27s CPU      5.36s WALL (    8016 calls)
     h_psi:calbec :      0.49s CPU      0.49s WALL (    8016 calls)
     vloc_psi     :      4.20s CPU      4.33s WALL (    8016 calls)
     add_vuspsi   :      0.56s CPU      0.53s WALL (    8016 calls)

     General routines
     calbec       :      0.69s CPU      0.73s WALL (   11800 calls)
     fft          :      0.01s CPU      0.01s WALL (     224 calls)
     ffts         :      0.00s CPU      0.00s WALL (      17 calls)
     fftw         :      4.24s CPU      4.36s WALL (  168428 calls)

     Parallel routines

     PWSCF        :    16.10s CPU        16.51s WALL


   This run was terminated on:   0:46:43  30Oct2019            

=------------------------------------------------------------------------------=
   JOB DONE.
=------------------------------------------------------------------------------=
