
     Program PWSCF v.6.3 starts on 30Oct2019 at  0:43:39 

     This program is part of the open-source Quantum ESPRESSO suite
     for quantum simulation of materials; please cite
         "P. Giannozzi et al., J. Phys.:Condens. Matter 21 395502 (2009);
         "P. Giannozzi et al., J. Phys.:Condens. Matter 29 465901 (2017);
          URL http://www.quantum-espresso.org", 
     in publications or presentations arising from this work. More details at
     http://www.quantum-espresso.org/quote

     Parallel version (MPI), running on     1 processors

     MPI processes distributed on     1 nodes
     Reading input from /cloud/Code/python/py_pwscf_converge/src/example2/wd/runpwscf/file_10262.in
Warning: card &IONS ignored
Warning: card ION_DYNAMICS = 'BFGS', ignored
Warning: card / ignored
Warning: card &CELL ignored
Warning: card CELL_DYNAMICS = 'BFGS', ignored
Warning: card CELL_FACTOR = 2.0, ignored
Warning: card PRESS = 0.0, ignored
Warning: card / ignored

     Current dimensions of program PWSCF are:
     Max number of different atomic species (ntypx) = 10
     Max number of k-points (npk) =  40000
     Max angular momentum in pseudopotentials (lmaxx) =  3
               file Al.pbe-nl-kjpaw_psl.1.0.0.UPF: wavefunction(s)  3S 3P renormalized

     Subspace diagonalization in iterative solution of the eigenvalue problem:
     a serial algorithm will be used


     G-vector sticks info
     --------------------
     sticks:   dense  smooth     PW     G-vecs:    dense   smooth      PW
     Sum         121     121     81                  949      949     515



     bravais-lattice index     =            0
     lattice parameter (alat)  =       4.0400  a.u.
     unit-cell volume          =      65.9393 (a.u.)^3
     number of atoms/cell      =            4
     number of atomic types    =            1
     number of electrons       =        12.00
     number of Kohn-Sham states=           10
     kinetic-energy cutoff     =      42.0000  Ry
     charge density cutoff     =      90.0000  Ry
     convergence threshold     =      1.0E-06
     mixing beta               =       0.1000
     number of iterations used =           10  TF        mixing
     Exchange-correlation      = SLA PW PBX PBC ( 1  4  3  4 0 0)

     celldm(1)=   4.040000  celldm(2)=   0.000000  celldm(3)=   0.000000
     celldm(4)=   0.000000  celldm(5)=   0.000000  celldm(6)=   0.000000

     crystal axes: (cart. coord. in units of alat)
               a(1) = (   1.000000   0.000000   0.000000 )  
               a(2) = (   0.000000   1.000000   0.000000 )  
               a(3) = (   0.000000   0.000000   1.000000 )  

     reciprocal axes: (cart. coord. in units 2 pi/alat)
               b(1) = (  1.000000  0.000000  0.000000 )  
               b(2) = (  0.000000  1.000000  0.000000 )  
               b(3) = (  0.000000  0.000000  1.000000 )  


     PseudoPot. # 1 for Al read from file:
     /opt/pp/Al.pbe-nl-kjpaw_psl.1.0.0.UPF
     MD5 check sum: 1b67f78b73fe58c7924490f171ce8a1e
     Pseudo is Projector augmented-wave + core cor, Zval =  3.0
     Generated using "atomic" code by A. Dal Corso v.6.3
     Shape of augmentation charge: PSQ
     Using radial grid of 1135 points,  4 beta functions with: 
                l(1) =   0
                l(2) =   0
                l(3) =   1
                l(4) =   1
     Q(r) pseudized with 0 coefficients 


     atomic species   valence    mass     pseudopotential
        Al             3.00    26.98200     Al( 1.00)

     No symmetry found



   Cartesian axes

     site n.     atom                  positions (alat units)
         1           Al  tau(   1) = (  -0.0001235   0.0000359   0.0002572  )
         2           Al  tau(   2) = (   0.5003009   0.4992819   0.0002658  )
         3           Al  tau(   3) = (   0.4996490   0.0001153   0.5011170  )
         4           Al  tau(   4) = (  -0.0000756   0.5008267   0.5006943  )

     number of k points=    14  Marzari-Vanderbilt smearing, width (Ry)=  0.0100
                       cart. coord. in units 2pi/alat
        k(    1) = (   0.1666667   0.1666667   0.1666667), wk =   0.1481481
        k(    2) = (   0.1666667   0.1666667  -0.5000000), wk =   0.1481481
        k(    3) = (   0.1666667  -0.5000000  -0.5000000), wk =   0.1481481
        k(    4) = (  -0.5000000  -0.5000000  -0.5000000), wk =   0.0740741
        k(    5) = (  -0.1666667  -0.1666667   0.1666667), wk =   0.1481481
        k(    6) = (  -0.1666667   0.1666667  -0.1666667), wk =   0.1481481
        k(    7) = (   0.1666667  -0.1666667  -0.1666667), wk =   0.1481481
        k(    8) = (  -0.1666667   0.1666667   0.5000000), wk =   0.1481481
        k(    9) = (  -0.5000000  -0.1666667   0.1666667), wk =   0.1481481
        k(   10) = (   0.5000000  -0.1666667  -0.1666667), wk =   0.1481481
        k(   11) = (  -0.1666667  -0.5000000   0.1666667), wk =   0.1481481
        k(   12) = (  -0.1666667   0.5000000  -0.1666667), wk =   0.1481481
        k(   13) = (  -0.5000000   0.1666667   0.5000000), wk =   0.1481481
        k(   14) = (  -0.5000000   0.5000000   0.1666667), wk =   0.1481481

     Dense  grid:      949 G-vectors     FFT dimensions: (  15,  15,  15)

     Estimated max dynamical RAM per process >       2.44 MB

     Initial potential from superposition of free atoms

     starting charge   11.99084, renormalised to   12.00000
     Starting wfcs are   16 randomized atomic wfcs
     Checking if some PAW data can be deallocated... 

     total cpu time spent up to now is        0.9 secs

     Self-consistent Calculation

     iteration #  1     ecut=    42.00 Ry     beta= 0.10
     Davidson diagonalization with overlap
     ethr =  1.00E-02,  avg # of iterations =  3.6

     total cpu time spent up to now is        1.2 secs

     total energy              =    -141.65139858 Ry
     Harris-Foulkes estimate   =    -141.80784546 Ry
     estimated scf accuracy    <       0.18668894 Ry

     iteration #  2     ecut=    42.00 Ry     beta= 0.10
     Davidson diagonalization with overlap
     ethr =  1.56E-03,  avg # of iterations =  1.2

     total cpu time spent up to now is        1.5 secs

     total energy              =    -141.15628886 Ry
     Harris-Foulkes estimate   =    -141.65509594 Ry
     estimated scf accuracy    <       0.16041577 Ry

     iteration #  3     ecut=    42.00 Ry     beta= 0.10
     Davidson diagonalization with overlap
     ethr =  1.34E-03,  avg # of iterations =  2.4

     total cpu time spent up to now is        1.8 secs

     total energy              =    -141.21656557 Ry
     Harris-Foulkes estimate   =    -141.24851328 Ry
     estimated scf accuracy    <       0.02521107 Ry

     iteration #  4     ecut=    42.00 Ry     beta= 0.10
     Davidson diagonalization with overlap
     ethr =  2.10E-04,  avg # of iterations =  1.7

     total cpu time spent up to now is        2.2 secs

     total energy              =    -141.22313862 Ry
     Harris-Foulkes estimate   =    -141.21828663 Ry
     estimated scf accuracy    <       0.01860802 Ry

     iteration #  5     ecut=    42.00 Ry     beta= 0.10
     Davidson diagonalization with overlap
     ethr =  1.55E-04,  avg # of iterations =  1.0

     total cpu time spent up to now is        2.4 secs

     total energy              =    -141.22207727 Ry
     Harris-Foulkes estimate   =    -141.22507849 Ry
     estimated scf accuracy    <       0.00028959 Ry

     iteration #  6     ecut=    42.00 Ry     beta= 0.10
     Davidson diagonalization with overlap
     ethr =  2.41E-06,  avg # of iterations =  3.2

     total cpu time spent up to now is        2.8 secs

     total energy              =    -141.22115480 Ry
     Harris-Foulkes estimate   =    -141.22225386 Ry
     estimated scf accuracy    <       0.00003701 Ry

     iteration #  7     ecut=    42.00 Ry     beta= 0.10
     Davidson diagonalization with overlap
     ethr =  3.08E-07,  avg # of iterations =  2.4

     total cpu time spent up to now is        3.1 secs

     total energy              =    -141.22058576 Ry
     Harris-Foulkes estimate   =    -141.22117897 Ry
     estimated scf accuracy    <       0.00005650 Ry

     iteration #  8     ecut=    42.00 Ry     beta= 0.10
     Davidson diagonalization with overlap
     ethr =  3.08E-07,  avg # of iterations =  2.9

     total cpu time spent up to now is        3.4 secs

     total energy              =    -141.22059542 Ry
     Harris-Foulkes estimate   =    -141.22061698 Ry
     estimated scf accuracy    <       0.00000311 Ry

     iteration #  9     ecut=    42.00 Ry     beta= 0.10
     Davidson diagonalization with overlap
     ethr =  2.59E-08,  avg # of iterations =  2.0

     total cpu time spent up to now is        3.7 secs

     total energy              =    -141.22057529 Ry
     Harris-Foulkes estimate   =    -141.22059579 Ry
     estimated scf accuracy    <       0.00000144 Ry

     iteration # 10     ecut=    42.00 Ry     beta= 0.10
     Davidson diagonalization with overlap
     ethr =  1.20E-08,  avg # of iterations =  3.0

     total cpu time spent up to now is        4.0 secs

     End of self-consistent calculation

          k = 0.1667 0.1667 0.1667 (   293 PWs)   bands (ev):

    32.1211  41.9836  42.0070  42.0325  52.3300  52.3565  52.3833  55.7062
    55.7174  55.7291

          k = 0.1667 0.1667-0.5000 (   302 PWs)   bands (ev):

    37.4429  37.4845  44.7928  44.7931  50.7796  50.7799  56.2559  56.2560
    57.3457  57.3891

          k = 0.1667-0.5000-0.5000 (   312 PWs)   bands (ev):

    41.7744  41.7831  41.8236  41.8320  51.9610  51.9722  51.9996  52.0110
    63.6964  63.7029

          k =-0.5000-0.5000-0.5000 (   304 PWs)   bands (ev):

    44.9434  44.9448  44.9466  44.9470  45.8293  45.8301  45.8320  45.8333
    75.2002  75.2024

          k =-0.1667-0.1667 0.1667 (   293 PWs)   bands (ev):

    32.1211  41.9885  42.0074  42.0272  52.3356  52.3566  52.3775  55.7086
    55.7176  55.7266

          k =-0.1667 0.1667-0.1667 (   293 PWs)   bands (ev):

    32.1211  41.9931  42.0083  42.0217  52.3410  52.3564  52.3722  55.7110
    55.7175  55.7243

          k = 0.1667-0.1667-0.1667 (   293 PWs)   bands (ev):

    32.1211  41.9907  42.0077  42.0247  52.3382  52.3567  52.3751  55.7096
    55.7176  55.7254

          k =-0.1667 0.1667 0.5000 (   302 PWs)   bands (ev):

    37.4428  37.4845  44.7928  44.7931  50.7797  50.7798  56.2556  56.2561
    57.3458  57.3892

          k =-0.5000-0.1667 0.1667 (   302 PWs)   bands (ev):

    37.4612  37.4661  44.7928  44.7933  50.7794  50.7797  56.2560  56.2564
    57.3650  57.3697

          k = 0.5000-0.1667-0.1667 (   302 PWs)   bands (ev):

    37.4612  37.4661  44.7927  44.7933  50.7798  50.7799  56.2549  56.2554
    57.3658  57.3705

          k =-0.1667-0.5000 0.1667 (   302 PWs)   bands (ev):

    37.4629  37.4643  44.7932  44.7932  50.7796  50.7798  56.2548  56.2561
    57.3668  57.3688

          k =-0.1667 0.5000-0.1667 (   302 PWs)   bands (ev):

    37.4629  37.4643  44.7931  44.7933  50.7795  50.7798  56.2555  56.2561
    57.3666  57.3684

          k =-0.5000 0.1667 0.5000 (   312 PWs)   bands (ev):

    41.7774  41.7871  41.8196  41.8288  51.9711  51.9822  51.9901  52.0009
    63.7015  63.7140

          k =-0.5000 0.5000 0.1667 (   312 PWs)   bands (ev):

    41.7810  41.7930  41.8136  41.8256  51.9567  51.9726  51.9994  52.0151
    63.7016  63.7160

     the Fermi energy is    52.1674 ev

!    total energy              =    -141.22057656 Ry
     Harris-Foulkes estimate   =    -141.22057733 Ry
     estimated scf accuracy    <       0.00000018 Ry

     total all-electron energy =     -1925.791699 Ry

     The total energy is the sum of the following terms:

     one-electron contribution =      58.81388912 Ry
     hartree contribution      =       0.23478830 Ry
     xc contribution           =     -17.31215974 Ry
     ewald contribution        =     -40.85514773 Ry
     one-center paw contrib.   =    -142.10462557 Ry
     smearing contrib. (-TS)   =       0.00267905 Ry

     convergence has been achieved in  10 iterations

     Forces acting on atoms (cartesian axes, Ry/au):

     atom    1 type  1   force =     0.00212823   -0.00031504    0.01604760
     atom    2 type  1   force =    -0.00369905    0.00500073    0.01612200
     atom    3 type  1   force =    -0.00003411   -0.00075902   -0.01725695
     atom    4 type  1   force =     0.00160493   -0.00392667   -0.01491265

     Total force =     0.033159     Total SCF correction =     0.000022


     Computing stress (Cartesian axis) and pressure

          total   stress  (Ry/bohr**3)                   (kbar)     P=60858.67
   0.41370244   0.00000155   0.00000070      60857.72      0.23      0.10
   0.00000155   0.41374187   0.00000004          0.23  60863.52      0.01
   0.00000070   0.00000004   0.41368230          0.10      0.01  60854.76


     Writing output data file fe_scf_fcc_2.save/

     init_run     :      0.44s CPU      0.46s WALL (       1 calls)
     electrons    :      2.99s CPU      3.10s WALL (       1 calls)
     forces       :      0.02s CPU      0.01s WALL (       1 calls)
     stress       :      0.04s CPU      0.04s WALL (       1 calls)

     Called by init_run:
     wfcinit      :      0.03s CPU      0.03s WALL (       1 calls)
     potinit      :      0.23s CPU      0.25s WALL (       1 calls)
     hinit0       :      0.17s CPU      0.17s WALL (       1 calls)

     Called by electrons:
     c_bands      :      0.52s CPU      0.53s WALL (      10 calls)
     sum_band     :      0.08s CPU      0.08s WALL (      10 calls)
     v_of_rho     :      0.02s CPU      0.02s WALL (      11 calls)
     newd         :      0.02s CPU      0.02s WALL (      11 calls)
     PAW_pot      :      2.58s CPU      2.69s WALL (      11 calls)
     mix_rho      :      0.00s CPU      0.00s WALL (      10 calls)

     Called by c_bands:
     init_us_2    :      0.03s CPU      0.03s WALL (     322 calls)
     cegterg      :      0.48s CPU      0.49s WALL (     140 calls)

     Called by sum_band:
     sum_band:bec :      0.00s CPU      0.00s WALL (     140 calls)
     addusdens    :      0.00s CPU      0.01s WALL (      10 calls)

     Called by *egterg:
     h_psi        :      0.29s CPU      0.31s WALL (     484 calls)
     s_psi        :      0.02s CPU      0.03s WALL (     484 calls)
     g_psi        :      0.00s CPU      0.01s WALL (     330 calls)
     cdiaghg      :      0.10s CPU      0.08s WALL (     470 calls)

     Called by h_psi:
     h_psi:pot    :      0.29s CPU      0.31s WALL (     484 calls)
     h_psi:calbec :      0.03s CPU      0.03s WALL (     484 calls)
     vloc_psi     :      0.24s CPU      0.25s WALL (     484 calls)
     add_vuspsi   :      0.02s CPU      0.03s WALL (     484 calls)

     General routines
     calbec       :      0.04s CPU      0.04s WALL (     694 calls)
     fft          :      0.00s CPU      0.00s WALL (     147 calls)
     ffts         :      0.00s CPU      0.00s WALL (      10 calls)
     fftw         :      0.24s CPU      0.25s WALL (    9354 calls)

     Parallel routines

     PWSCF        :     3.91s CPU         4.06s WALL


   This run was terminated on:   0:43:43  30Oct2019            

=------------------------------------------------------------------------------=
   JOB DONE.
=------------------------------------------------------------------------------=
