
     Program PWSCF v.6.4.1 starts on 24Feb2020 at 15:59:27 

     This program is part of the open-source Quantum ESPRESSO suite
     for quantum simulation of materials; please cite
         "P. Giannozzi et al., J. Phys.:Condens. Matter 21 395502 (2009);
         "P. Giannozzi et al., J. Phys.:Condens. Matter 29 465901 (2017);
          URL http://www.quantum-espresso.org", 
     in publications or presentations arising from this work. More details at
     http://www.quantum-espresso.org/quote

     Parallel version (MPI), running on     4 processors

     MPI processes distributed on     1 nodes
     R & G space division:  proc/nbgrp/npool/nimage =       4
     Reading input from /cloud/Code/python/py_pwscf_converge/src/example2/wd/runpwscf/file_10215.in
Warning: card &IONS ignored
Warning: card ION_DYNAMICS = 'BFGS', ignored
Warning: card / ignored
Warning: card &CELL ignored
Warning: card CELL_DYNAMICS = 'BFGS', ignored
Warning: card CELL_FACTOR = 2.0, ignored
Warning: card PRESS = 0.0, ignored
Warning: card / ignored

     Current dimensions of program PWSCF are:
     Max number of different atomic species (ntypx) = 10
     Max number of k-points (npk) =  40000
     Max angular momentum in pseudopotentials (lmaxx) =  3
               file Al.pbe-nl-kjpaw_psl.1.0.0.UPF: wavefunction(s)  3S 3P renormalized

     Subspace diagonalization in iterative solution of the eigenvalue problem:
     a serial algorithm will be used


     Parallelization info
     --------------------
     sticks:   dense  smooth     PW     G-vecs:    dense   smooth      PW
     Min         115     115     70                 1873     1873     893
     Max         117     117     72                 1875     1875     894
     Sum         465     465    285                 7497     7497    3575



     bravais-lattice index     =            0
     lattice parameter (alat)  =       7.6356  a.u.
     unit-cell volume          =     445.1737 (a.u.)^3
     number of atoms/cell      =            4
     number of atomic types    =            1
     number of electrons       =        12.00
     number of Kohn-Sham states=           10
     kinetic-energy cutoff     =      50.0000  Ry
     charge density cutoff     =     100.0000  Ry
     convergence threshold     =      1.0E-06
     mixing beta               =       0.1000
     number of iterations used =           10  TF        mixing
     Exchange-correlation      = SLA PW PBX PBC ( 1  4  3  4 0 0)

     celldm(1)=   7.635600  celldm(2)=   0.000000  celldm(3)=   0.000000
     celldm(4)=   0.000000  celldm(5)=   0.000000  celldm(6)=   0.000000

     crystal axes: (cart. coord. in units of alat)
               a(1) = (   1.000000   0.000000   0.000000 )  
               a(2) = (   0.000000   1.000000   0.000000 )  
               a(3) = (   0.000000   0.000000   1.000000 )  

     reciprocal axes: (cart. coord. in units 2 pi/alat)
               b(1) = (  1.000000  0.000000  0.000000 )  
               b(2) = (  0.000000  1.000000  0.000000 )  
               b(3) = (  0.000000  0.000000  1.000000 )  


     PseudoPot. # 1 for Al read from file:
     /opt/pp/Al.pbe-nl-kjpaw_psl.1.0.0.UPF
     MD5 check sum: 1b67f78b73fe58c7924490f171ce8a1e
     Pseudo is Projector augmented-wave + core cor, Zval =  3.0
     Generated using "atomic" code by A. Dal Corso v.6.3
     Shape of augmentation charge: PSQ
     Using radial grid of 1135 points,  4 beta functions with: 
                l(1) =   0
                l(2) =   0
                l(3) =   1
                l(4) =   1
     Q(r) pseudized with 0 coefficients 


     atomic species   valence    mass     pseudopotential
        Al             3.00    26.98200     Al( 1.00)

     No symmetry found



   Cartesian axes

     site n.     atom                  positions (alat units)
         1           Al  tau(   1) = (  -0.0000654   0.0000190   0.0001361  )
         2           Al  tau(   2) = (   0.5001592   0.4996200   0.0001406  )
         3           Al  tau(   3) = (   0.4998143   0.0000610   0.5005910  )
         4           Al  tau(   4) = (  -0.0000400   0.5004374   0.5003674  )

     number of k points=    14  Marzari-Vanderbilt smearing, width (Ry)=  0.0100
                       cart. coord. in units 2pi/alat
        k(    1) = (   0.1666667   0.1666667   0.1666667), wk =   0.1481481
        k(    2) = (   0.1666667   0.1666667  -0.5000000), wk =   0.1481481
        k(    3) = (   0.1666667  -0.5000000  -0.5000000), wk =   0.1481481
        k(    4) = (  -0.5000000  -0.5000000  -0.5000000), wk =   0.0740741
        k(    5) = (  -0.1666667  -0.1666667   0.1666667), wk =   0.1481481
        k(    6) = (  -0.1666667   0.1666667  -0.1666667), wk =   0.1481481
        k(    7) = (   0.1666667  -0.1666667  -0.1666667), wk =   0.1481481
        k(    8) = (  -0.1666667   0.1666667   0.5000000), wk =   0.1481481
        k(    9) = (  -0.5000000  -0.1666667   0.1666667), wk =   0.1481481
        k(   10) = (   0.5000000  -0.1666667  -0.1666667), wk =   0.1481481
        k(   11) = (  -0.1666667  -0.5000000   0.1666667), wk =   0.1481481
        k(   12) = (  -0.1666667   0.5000000  -0.1666667), wk =   0.1481481
        k(   13) = (  -0.5000000   0.1666667   0.5000000), wk =   0.1481481
        k(   14) = (  -0.5000000   0.5000000   0.1666667), wk =   0.1481481

     Dense  grid:     7497 G-vectors     FFT dimensions: (  25,  25,  25)

     Estimated max dynamical RAM per process >       4.85 MB

     Estimated total dynamical RAM >      19.40 MB

     Initial potential from superposition of free atoms

     starting charge   11.99084, renormalised to   12.00000
     Starting wfcs are   16 randomized atomic wfcs
     Checking if some PAW data can be deallocated... 

     total cpu time spent up to now is        0.7 secs

     Self-consistent Calculation

     iteration #  1     ecut=    50.00 Ry     beta= 0.10
     Davidson diagonalization with overlap
     ethr =  1.00E-02,  avg # of iterations =  2.9

     Threshold (ethr) on eigenvalues was too large:
     Diagonalizing with lowered threshold

     Davidson diagonalization with overlap
     ethr =  1.90E-04,  avg # of iterations =  2.3

     total cpu time spent up to now is        1.1 secs

     total energy              =    -158.05019478 Ry
     Harris-Foulkes estimate   =    -158.05094034 Ry
     estimated scf accuracy    <       0.02191687 Ry

     iteration #  2     ecut=    50.00 Ry     beta= 0.10
     Davidson diagonalization with overlap
     ethr =  1.83E-04,  avg # of iterations =  1.0

     total cpu time spent up to now is        1.3 secs

     total energy              =    -158.04475799 Ry
     Harris-Foulkes estimate   =    -158.05035244 Ry
     estimated scf accuracy    <       0.01888914 Ry

     iteration #  3     ecut=    50.00 Ry     beta= 0.10
     Davidson diagonalization with overlap
     ethr =  1.57E-04,  avg # of iterations =  1.0

     total cpu time spent up to now is        1.5 secs

     total energy              =    -158.04501296 Ry
     Harris-Foulkes estimate   =    -158.04506742 Ry
     estimated scf accuracy    <       0.00010527 Ry

     iteration #  4     ecut=    50.00 Ry     beta= 0.10
     Davidson diagonalization with overlap
     ethr =  8.77E-07,  avg # of iterations =  4.6

     total cpu time spent up to now is        1.8 secs

     total energy              =    -158.04505699 Ry
     Harris-Foulkes estimate   =    -158.04507589 Ry
     estimated scf accuracy    <       0.00005555 Ry

     iteration #  5     ecut=    50.00 Ry     beta= 0.10
     Davidson diagonalization with overlap
     ethr =  4.63E-07,  avg # of iterations =  2.1

     total cpu time spent up to now is        2.0 secs

     total energy              =    -158.04502280 Ry
     Harris-Foulkes estimate   =    -158.04505941 Ry
     estimated scf accuracy    <       0.00004137 Ry

     iteration #  6     ecut=    50.00 Ry     beta= 0.10
     Davidson diagonalization with overlap
     ethr =  3.45E-07,  avg # of iterations =  2.0

     total cpu time spent up to now is        2.3 secs

     total energy              =    -158.04503063 Ry
     Harris-Foulkes estimate   =    -158.04503102 Ry
     estimated scf accuracy    <       0.00000110 Ry

     iteration #  7     ecut=    50.00 Ry     beta= 0.10
     Davidson diagonalization with overlap
     ethr =  9.14E-09,  avg # of iterations =  1.6

     total cpu time spent up to now is        2.5 secs

     End of self-consistent calculation

          k = 0.1667 0.1667 0.1667 (  2659 PWs)   bands (ev):

    -2.4777   3.3895   3.3917   3.3939   8.9377   8.9421   8.9464   9.4197
     9.4202   9.4208

          k = 0.1667 0.1667-0.5000 (  2672 PWs)   bands (ev):

    -0.4908  -0.4826   5.1703   5.1706   5.4432   5.4437  10.9097  10.9133
    10.9136  10.9192

          k = 0.1667-0.5000-0.5000 (  2636 PWs)   bands (ev):

     1.4727   1.4733   1.4811   1.4820   7.2037   7.2043   7.2126   7.2136
    13.0182  13.0232

          k =-0.5000-0.5000-0.5000 (  2608 PWs)   bands (ev):

     3.3120   3.3121   3.3122   3.3123   3.5312   3.5318   3.5319   3.5322
    19.3165  19.3167

          k =-0.1667-0.1667 0.1667 (  2659 PWs)   bands (ev):

    -2.4777   3.3900   3.3917   3.3934   8.9386   8.9421   8.9455   9.4198
     9.4203   9.4207

          k =-0.1667 0.1667-0.1667 (  2659 PWs)   bands (ev):

    -2.4777   3.3905   3.3917   3.3930   8.9395   8.9420   8.9446   9.4199
     9.4202   9.4206

          k = 0.1667-0.1667-0.1667 (  2659 PWs)   bands (ev):

    -2.4777   3.3901   3.3917   3.3933   8.9390   8.9421   8.9451   9.4198
     9.4203   9.4207

          k =-0.1667 0.1667 0.5000 (  2672 PWs)   bands (ev):

    -0.4908  -0.4826   5.1703   5.1705   5.4432   5.4438  10.9097  10.9134
    10.9135  10.9191

          k =-0.5000-0.1667 0.1667 (  2672 PWs)   bands (ev):

    -0.4872  -0.4862   5.1704   5.1706   5.4432   5.4436  10.9122  10.9129
    10.9148  10.9159

          k = 0.5000-0.1667-0.1667 (  2672 PWs)   bands (ev):

    -0.4872  -0.4862   5.1704   5.1706   5.4432   5.4436  10.9130  10.9135
    10.9141  10.9152

          k =-0.1667-0.5000 0.1667 (  2672 PWs)   bands (ev):

    -0.4869  -0.4865   5.1705   5.1705   5.4433   5.4435  10.9121  10.9135
    10.9145  10.9158

          k =-0.1667 0.5000-0.1667 (  2672 PWs)   bands (ev):

    -0.4869  -0.4865   5.1704   5.1706   5.4434   5.4435  10.9128  10.9145
    10.9150  11.4947

          k =-0.5000 0.1667 0.5000 (  2636 PWs)   bands (ev):

     1.4727   1.4736   1.4808   1.4820   7.2036   7.2046   7.2123   7.2136
    13.0170  13.0226

          k =-0.5000 0.5000 0.1667 (  2636 PWs)   bands (ev):

     1.4756   1.4765   1.4780   1.4791   7.2065   7.2076   7.2094   7.2106
    13.0208  13.0214

     the Fermi energy is     8.8496 ev

!    total energy              =    -158.04503007 Ry
     Harris-Foulkes estimate   =    -158.04503069 Ry
     estimated scf accuracy    <       0.00000091 Ry

     total all-electron energy =     -1942.616152 Ry

     The total energy is the sum of the following terms:

     one-electron contribution =      12.62558420 Ry
     hartree contribution      =       0.02531405 Ry
     xc contribution           =     -10.36585152 Ry
     ewald contribution        =     -21.61650270 Ry
     one-center paw contrib.   =    -138.71213637 Ry
     smearing contrib. (-TS)   =      -0.00143772 Ry

     convergence has been achieved in   7 iterations

     Forces acting on atoms (cartesian axes, Ry/au):

     atom    1 type  1   force =     0.00007237   -0.00005966    0.00037219
     atom    2 type  1   force =    -0.00011761    0.00003814    0.00038225
     atom    3 type  1   force =    -0.00003730    0.00005591   -0.00044154
     atom    4 type  1   force =     0.00008254   -0.00003439   -0.00031290

     Total force =     0.000784     Total SCF correction =     0.000196
     SCF correction compared to forces is large: reduce conv_thr to get better values


     Computing stress (Cartesian axis) and pressure

          total   stress  (Ry/bohr**3)                   (kbar)     P=   -2.03
  -0.00001381  -0.00000003  -0.00000001         -2.03     -0.00     -0.00
  -0.00000003  -0.00001375  -0.00000001         -0.00     -2.02     -0.00
  -0.00000001  -0.00000001  -0.00001380         -0.00     -0.00     -2.03


     Writing output data file fe_scf_fcc_2.save/

     init_run     :      0.19s CPU      0.20s WALL (       1 calls)
     electrons    :      1.70s CPU      1.79s WALL (       1 calls)
     forces       :      0.05s CPU      0.05s WALL (       1 calls)
     stress       :      0.08s CPU      0.08s WALL (       1 calls)

     Called by init_run:
     wfcinit      :      0.08s CPU      0.09s WALL (       1 calls)
     potinit      :      0.05s CPU      0.05s WALL (       1 calls)
     hinit0       :      0.05s CPU      0.05s WALL (       1 calls)

     Called by electrons:
     c_bands      :      1.18s CPU      1.24s WALL (       8 calls)
     sum_band     :      0.18s CPU      0.18s WALL (       8 calls)
     v_of_rho     :      0.02s CPU      0.02s WALL (       8 calls)
     newd         :      0.02s CPU      0.02s WALL (       8 calls)
     PAW_pot      :      0.35s CPU      0.37s WALL (       8 calls)
     mix_rho      :      0.00s CPU      0.00s WALL (       8 calls)

     Called by c_bands:
     init_us_2    :      0.04s CPU      0.04s WALL (     266 calls)
     cegterg      :      1.11s CPU      1.16s WALL (     112 calls)

     Called by sum_band:
     sum_band:bec :      0.00s CPU      0.00s WALL (     112 calls)
     addusdens    :      0.01s CPU      0.01s WALL (       8 calls)

     Called by *egterg:
     h_psi        :      0.74s CPU      0.78s WALL (     373 calls)
     s_psi        :      0.11s CPU      0.11s WALL (     373 calls)
     g_psi        :      0.01s CPU      0.01s WALL (     247 calls)
     cdiaghg      :      0.06s CPU      0.06s WALL (     345 calls)

     Called by h_psi:
     h_psi:pot    :      0.73s CPU      0.77s WALL (     373 calls)
     h_psi:calbec :      0.14s CPU      0.15s WALL (     373 calls)
     vloc_psi     :      0.48s CPU      0.51s WALL (     373 calls)
     add_vuspsi   :      0.11s CPU      0.11s WALL (     373 calls)

     General routines
     calbec       :      0.23s CPU      0.24s WALL (     555 calls)
     fft          :      0.01s CPU      0.01s WALL (     114 calls)
     ffts         :      0.00s CPU      0.00s WALL (       8 calls)
     fftw         :      0.53s CPU      0.56s WALL (    7186 calls)

     Parallel routines
     fft_scatt_xy :      0.06s CPU      0.07s WALL (    7308 calls)
     fft_scatt_yz :      0.26s CPU      0.28s WALL (    7308 calls)

     PWSCF        :      2.51s CPU      2.63s WALL


   This run was terminated on:  15:59:30  24Feb2020            

=------------------------------------------------------------------------------=
   JOB DONE.
=------------------------------------------------------------------------------=
