
     Program PWSCF v.6.3 starts on 30Oct2019 at  0:43:26 

     This program is part of the open-source Quantum ESPRESSO suite
     for quantum simulation of materials; please cite
         "P. Giannozzi et al., J. Phys.:Condens. Matter 21 395502 (2009);
         "P. Giannozzi et al., J. Phys.:Condens. Matter 29 465901 (2017);
          URL http://www.quantum-espresso.org", 
     in publications or presentations arising from this work. More details at
     http://www.quantum-espresso.org/quote

     Parallel version (MPI), running on     1 processors

     MPI processes distributed on     1 nodes
     Reading input from /cloud/Code/python/py_pwscf_converge/src/example2/wd/runpwscf/file_10259.in
Warning: card &IONS ignored
Warning: card ION_DYNAMICS = 'BFGS', ignored
Warning: card / ignored
Warning: card &CELL ignored
Warning: card CELL_DYNAMICS = 'BFGS', ignored
Warning: card CELL_FACTOR = 2.0, ignored
Warning: card PRESS = 0.0, ignored
Warning: card / ignored

     Current dimensions of program PWSCF are:
     Max number of different atomic species (ntypx) = 10
     Max number of k-points (npk) =  40000
     Max angular momentum in pseudopotentials (lmaxx) =  3
               file Al.pbe-nl-kjpaw_psl.1.0.0.UPF: wavefunction(s)  3S 3P renormalized

     Subspace diagonalization in iterative solution of the eigenvalue problem:
     a serial algorithm will be used


     G-vector sticks info
     --------------------
     sticks:   dense  smooth     PW     G-vecs:    dense   smooth      PW
     Sum         121     121     81                  949      949     515



     bravais-lattice index     =            0
     lattice parameter (alat)  =       4.0400  a.u.
     unit-cell volume          =      65.9393 (a.u.)^3
     number of atoms/cell      =            4
     number of atomic types    =            1
     number of electrons       =        12.00
     number of Kohn-Sham states=           10
     kinetic-energy cutoff     =      42.0000  Ry
     charge density cutoff     =      90.0000  Ry
     convergence threshold     =      1.0E-06
     mixing beta               =       0.1000
     number of iterations used =           10  TF        mixing
     Exchange-correlation      = SLA PW PBX PBC ( 1  4  3  4 0 0)

     celldm(1)=   4.040000  celldm(2)=   0.000000  celldm(3)=   0.000000
     celldm(4)=   0.000000  celldm(5)=   0.000000  celldm(6)=   0.000000

     crystal axes: (cart. coord. in units of alat)
               a(1) = (   1.000000   0.000000   0.000000 )  
               a(2) = (   0.000000   1.000000   0.000000 )  
               a(3) = (   0.000000   0.000000   1.000000 )  

     reciprocal axes: (cart. coord. in units 2 pi/alat)
               b(1) = (  1.000000  0.000000  0.000000 )  
               b(2) = (  0.000000  1.000000  0.000000 )  
               b(3) = (  0.000000  0.000000  1.000000 )  


     PseudoPot. # 1 for Al read from file:
     /opt/pp/Al.pbe-nl-kjpaw_psl.1.0.0.UPF
     MD5 check sum: 1b67f78b73fe58c7924490f171ce8a1e
     Pseudo is Projector augmented-wave + core cor, Zval =  3.0
     Generated using "atomic" code by A. Dal Corso v.6.3
     Shape of augmentation charge: PSQ
     Using radial grid of 1135 points,  4 beta functions with: 
                l(1) =   0
                l(2) =   0
                l(3) =   1
                l(4) =   1
     Q(r) pseudized with 0 coefficients 


     atomic species   valence    mass     pseudopotential
        Al             3.00    26.98200     Al( 1.00)

     No symmetry found



   Cartesian axes

     site n.     atom                  positions (alat units)
         1           Al  tau(   1) = (  -0.0001235   0.0000359   0.0002572  )
         2           Al  tau(   2) = (   0.5003009   0.4992819   0.0002658  )
         3           Al  tau(   3) = (   0.4996490   0.0001153   0.5011170  )
         4           Al  tau(   4) = (  -0.0000756   0.5008267   0.5006943  )

     number of k points=    14  Marzari-Vanderbilt smearing, width (Ry)=  0.0050
                       cart. coord. in units 2pi/alat
        k(    1) = (   0.1666667   0.1666667   0.1666667), wk =   0.1481481
        k(    2) = (   0.1666667   0.1666667  -0.5000000), wk =   0.1481481
        k(    3) = (   0.1666667  -0.5000000  -0.5000000), wk =   0.1481481
        k(    4) = (  -0.5000000  -0.5000000  -0.5000000), wk =   0.0740741
        k(    5) = (  -0.1666667  -0.1666667   0.1666667), wk =   0.1481481
        k(    6) = (  -0.1666667   0.1666667  -0.1666667), wk =   0.1481481
        k(    7) = (   0.1666667  -0.1666667  -0.1666667), wk =   0.1481481
        k(    8) = (  -0.1666667   0.1666667   0.5000000), wk =   0.1481481
        k(    9) = (  -0.5000000  -0.1666667   0.1666667), wk =   0.1481481
        k(   10) = (   0.5000000  -0.1666667  -0.1666667), wk =   0.1481481
        k(   11) = (  -0.1666667  -0.5000000   0.1666667), wk =   0.1481481
        k(   12) = (  -0.1666667   0.5000000  -0.1666667), wk =   0.1481481
        k(   13) = (  -0.5000000   0.1666667   0.5000000), wk =   0.1481481
        k(   14) = (  -0.5000000   0.5000000   0.1666667), wk =   0.1481481

     Dense  grid:      949 G-vectors     FFT dimensions: (  15,  15,  15)

     Estimated max dynamical RAM per process >       2.44 MB

     Initial potential from superposition of free atoms

     starting charge   11.99084, renormalised to   12.00000
     Starting wfcs are   16 randomized atomic wfcs
     Checking if some PAW data can be deallocated... 

     total cpu time spent up to now is        0.9 secs

     Self-consistent Calculation

     iteration #  1     ecut=    42.00 Ry     beta= 0.10
     Davidson diagonalization with overlap
     ethr =  1.00E-02,  avg # of iterations =  3.6

     total cpu time spent up to now is        1.2 secs

     total energy              =    -141.65070733 Ry
     Harris-Foulkes estimate   =    -141.80716235 Ry
     estimated scf accuracy    <       0.18671987 Ry

     iteration #  2     ecut=    42.00 Ry     beta= 0.10
     Davidson diagonalization with overlap
     ethr =  1.56E-03,  avg # of iterations =  1.2

     total cpu time spent up to now is        1.5 secs

     total energy              =    -141.15511416 Ry
     Harris-Foulkes estimate   =    -141.65440626 Ry
     estimated scf accuracy    <       0.16043741 Ry

     iteration #  3     ecut=    42.00 Ry     beta= 0.10
     Davidson diagonalization with overlap
     ethr =  1.34E-03,  avg # of iterations =  2.4

     total cpu time spent up to now is        1.8 secs

     total energy              =    -141.21603702 Ry
     Harris-Foulkes estimate   =    -141.24807093 Ry
     estimated scf accuracy    <       0.02453473 Ry

     iteration #  4     ecut=    42.00 Ry     beta= 0.10
     Davidson diagonalization with overlap
     ethr =  2.04E-04,  avg # of iterations =  1.7

     total cpu time spent up to now is        2.1 secs

     total energy              =    -141.22481666 Ry
     Harris-Foulkes estimate   =    -141.21763409 Ry
     estimated scf accuracy    <       0.01754857 Ry

     iteration #  5     ecut=    42.00 Ry     beta= 0.10
     Davidson diagonalization with overlap
     ethr =  1.46E-04,  avg # of iterations =  1.4

     total cpu time spent up to now is        2.4 secs

     total energy              =    -141.22221530 Ry
     Harris-Foulkes estimate   =    -141.22698507 Ry
     estimated scf accuracy    <       0.00036345 Ry

     iteration #  6     ecut=    42.00 Ry     beta= 0.10
     Davidson diagonalization with overlap
     ethr =  3.03E-06,  avg # of iterations =  3.0

     total cpu time spent up to now is        2.8 secs

     total energy              =    -141.22171304 Ry
     Harris-Foulkes estimate   =    -141.22235854 Ry
     estimated scf accuracy    <       0.00004121 Ry

     iteration #  7     ecut=    42.00 Ry     beta= 0.10
     Davidson diagonalization with overlap
     ethr =  3.43E-07,  avg # of iterations =  1.3

     total cpu time spent up to now is        3.0 secs

     total energy              =    -141.22037579 Ry
     Harris-Foulkes estimate   =    -141.22171720 Ry
     estimated scf accuracy    <       0.00002549 Ry

     iteration #  8     ecut=    42.00 Ry     beta= 0.10
     Davidson diagonalization with overlap
     ethr =  2.12E-07,  avg # of iterations =  3.4

     total cpu time spent up to now is        3.4 secs

     total energy              =    -141.22029948 Ry
     Harris-Foulkes estimate   =    -141.22043721 Ry
     estimated scf accuracy    <       0.00000278 Ry

     iteration #  9     ecut=    42.00 Ry     beta= 0.10
     Davidson diagonalization with overlap
     ethr =  2.32E-08,  avg # of iterations =  3.8

     total cpu time spent up to now is        3.7 secs

     total energy              =    -141.22031182 Ry
     Harris-Foulkes estimate   =    -141.22031148 Ry
     estimated scf accuracy    <       0.00001120 Ry

     iteration # 10     ecut=    42.00 Ry     beta= 0.10
     Davidson diagonalization with overlap
     ethr =  2.32E-08,  avg # of iterations =  2.0

     total cpu time spent up to now is        4.0 secs

     total energy              =    -141.22030715 Ry
     Harris-Foulkes estimate   =    -141.22031330 Ry
     estimated scf accuracy    <       0.00000280 Ry

     iteration # 11     ecut=    42.00 Ry     beta= 0.10
     Davidson diagonalization with overlap
     ethr =  2.32E-08,  avg # of iterations =  2.0

     total cpu time spent up to now is        4.3 secs

     End of self-consistent calculation

          k = 0.1667 0.1667 0.1667 (   293 PWs)   bands (ev):

    32.1104  41.9751  41.9976  42.0208  52.3325  52.3558  52.3818  55.7038
    55.7123  55.7227

          k = 0.1667 0.1667-0.5000 (   302 PWs)   bands (ev):

    37.4321  37.4748  44.7816  44.7820  50.7766  50.7781  56.2526  56.2534
    57.3465  57.3881

          k = 0.1667-0.5000-0.5000 (   312 PWs)   bands (ev):

    41.7648  41.7737  41.8146  41.8216  51.9597  51.9700  51.9952  52.0054
    63.6911  63.6984

          k =-0.5000-0.5000-0.5000 (   304 PWs)   bands (ev):

    44.9432  44.9440  44.9453  44.9461  45.8170  45.8177  45.8185  45.8203
    75.1977  75.2005

          k =-0.1667-0.1667 0.1667 (   293 PWs)   bands (ev):

    32.1104  41.9797  41.9979  42.0159  52.3372  52.3565  52.3762  55.7054
    55.7132  55.7204

          k =-0.1667 0.1667-0.1667 (   293 PWs)   bands (ev):

    32.1104  41.9842  41.9984  42.0110  52.3426  52.3556  52.3715  55.7078
    55.7122  55.7189

          k = 0.1667-0.1667-0.1667 (   293 PWs)   bands (ev):

    32.1104  41.9818  41.9982  42.0136  52.3397  52.3565  52.3739  55.7062
    55.7130  55.7194

          k =-0.1667 0.1667 0.5000 (   302 PWs)   bands (ev):

    37.4321  37.4748  44.7819  44.7819  50.7765  50.7777  56.2526  56.2534
    57.3466  57.3881

          k =-0.5000-0.1667 0.1667 (   302 PWs)   bands (ev):

    37.4509  37.4559  44.7819  44.7820  50.7767  50.7773  56.2528  56.2537
    57.3648  57.3696

          k = 0.5000-0.1667-0.1667 (   302 PWs)   bands (ev):

    37.4508  37.4559  44.7817  44.7819  50.7768  50.7779  56.2521  56.2524
    57.3656  57.3705

          k =-0.1667-0.5000 0.1667 (   302 PWs)   bands (ev):

    37.4524  37.4543  44.7816  44.7825  50.7766  50.7777  56.2516  56.2537
    57.3662  57.3691

          k =-0.1667 0.5000-0.1667 (   302 PWs)   bands (ev):

    37.4524  37.4543  44.7816  44.7824  50.7763  50.7780  56.2522  56.2536
    57.3661  57.3687

          k =-0.5000 0.1667 0.5000 (   312 PWs)   bands (ev):

    41.7677  41.7766  41.8106  41.8195  51.9688  51.9787  51.9866  51.9965
    63.6954  63.7015

          k =-0.5000 0.5000 0.1667 (   312 PWs)   bands (ev):

    41.7734  41.7842  41.8029  41.8141  51.9560  51.9703  51.9948  52.0092
    63.6927  63.7012

     the Fermi energy is    52.3064 ev

!    total energy              =    -141.22030752 Ry
     Harris-Foulkes estimate   =    -141.22030771 Ry
     estimated scf accuracy    <       0.00000029 Ry

     total all-electron energy =     -1925.791430 Ry

     The total energy is the sum of the following terms:

     one-electron contribution =      58.80585011 Ry
     hartree contribution      =       0.23182010 Ry
     xc contribution           =     -17.30910194 Ry
     ewald contribution        =     -40.85514773 Ry
     one-center paw contrib.   =    -142.09305877 Ry
     smearing contrib. (-TS)   =      -0.00066929 Ry

     convergence has been achieved in  11 iterations

     Forces acting on atoms (cartesian axes, Ry/au):

     atom    1 type  1   force =     0.00179796   -0.00098626    0.01608444
     atom    2 type  1   force =     0.00115913   -0.00659263    0.01631295
     atom    3 type  1   force =    -0.00491022   -0.00007712   -0.01428718
     atom    4 type  1   force =     0.00195314    0.00765601   -0.01811021

     Total force =     0.034532     Total SCF correction =     0.000016


     Computing stress (Cartesian axis) and pressure

          total   stress  (Ry/bohr**3)                   (kbar)     P=60746.46
   0.41297418   0.00004365   0.00001354      60750.59      6.42      1.99
   0.00004365   0.41285507   0.00002338          6.42  60733.07      3.44
   0.00001354   0.00002338   0.41300902          1.99      3.44  60755.71


     Writing output data file fe_scf_fcc_2.save/

     init_run     :      0.46s CPU      0.46s WALL (       1 calls)
     electrons    :      3.30s CPU      3.42s WALL (       1 calls)
     forces       :      0.02s CPU      0.01s WALL (       1 calls)
     stress       :      0.04s CPU      0.04s WALL (       1 calls)

     Called by init_run:
     wfcinit      :      0.04s CPU      0.04s WALL (       1 calls)
     potinit      :      0.24s CPU      0.25s WALL (       1 calls)
     hinit0       :      0.17s CPU      0.17s WALL (       1 calls)

     Called by electrons:
     c_bands      :      0.56s CPU      0.59s WALL (      11 calls)
     sum_band     :      0.09s CPU      0.09s WALL (      11 calls)
     v_of_rho     :      0.03s CPU      0.03s WALL (      12 calls)
     newd         :      0.01s CPU      0.02s WALL (      12 calls)
     PAW_pot      :      2.85s CPU      2.93s WALL (      12 calls)
     mix_rho      :      0.00s CPU      0.00s WALL (      11 calls)

     Called by c_bands:
     init_us_2    :      0.03s CPU      0.04s WALL (     350 calls)
     cegterg      :      0.52s CPU      0.54s WALL (     154 calls)

     Called by sum_band:
     sum_band:bec :      0.00s CPU      0.00s WALL (     154 calls)
     addusdens    :      0.01s CPU      0.01s WALL (      11 calls)

     Called by *egterg:
     h_psi        :      0.35s CPU      0.35s WALL (     530 calls)
     s_psi        :      0.03s CPU      0.03s WALL (     530 calls)
     g_psi        :      0.00s CPU      0.01s WALL (     362 calls)
     cdiaghg      :      0.09s CPU      0.09s WALL (     516 calls)

     Called by h_psi:
     h_psi:pot    :      0.35s CPU      0.34s WALL (     530 calls)
     h_psi:calbec :      0.04s CPU      0.03s WALL (     530 calls)
     vloc_psi     :      0.30s CPU      0.28s WALL (     530 calls)
     add_vuspsi   :      0.02s CPU      0.03s WALL (     530 calls)

     General routines
     calbec       :      0.05s CPU      0.05s WALL (     754 calls)
     fft          :      0.00s CPU      0.00s WALL (     158 calls)
     ffts         :      0.00s CPU      0.00s WALL (      11 calls)
     fftw         :      0.28s CPU      0.27s WALL (   10198 calls)

     Parallel routines

     PWSCF        :     4.24s CPU         4.39s WALL


   This run was terminated on:   0:43:30  30Oct2019            

=------------------------------------------------------------------------------=
   JOB DONE.
=------------------------------------------------------------------------------=
