
     Program PWSCF v.6.4.1 starts on 19Mar2020 at  4:37:37 

     This program is part of the open-source Quantum ESPRESSO suite
     for quantum simulation of materials; please cite
         "P. Giannozzi et al., J. Phys.:Condens. Matter 21 395502 (2009);
         "P. Giannozzi et al., J. Phys.:Condens. Matter 29 465901 (2017);
          URL http://www.quantum-espresso.org", 
     in publications or presentations arising from this work. More details at
     http://www.quantum-espresso.org/quote

     Parallel version (MPI), running on     4 processors

     MPI processes distributed on     1 nodes
     R & G space division:  proc/nbgrp/npool/nimage =       4
     Reading input from wd/ecut/file_000098.in
Warning: card &IONS ignored
Warning: card ION_DYNAMICS = 'BFGS', ignored
Warning: card / ignored
Warning: card &CELL ignored
Warning: card CELL_DYNAMICS = 'BFGS', ignored
Warning: card CELL_FACTOR = 2.0, ignored
Warning: card PRESS = 0.0, ignored
Warning: card / ignored

     Current dimensions of program PWSCF are:
     Max number of different atomic species (ntypx) = 10
     Max number of k-points (npk) =  40000
     Max angular momentum in pseudopotentials (lmaxx) =  3
               file Al.pbe-nl-kjpaw_psl.1.0.0.UPF: wavefunction(s)  3S 3P renormalized

     Subspace diagonalization in iterative solution of the eigenvalue problem:
     a serial algorithm will be used


     Parallelization info
     --------------------
     sticks:   dense  smooth     PW     G-vecs:    dense   smooth      PW
     Min         299     277     83                 7857     7003    1137
     Max         301     278     84                 7861     7006    1140
     Sum        1201    1109    333                31439    28017    4553



     bravais-lattice index     =            0
     lattice parameter (alat)  =       7.6356  a.u.
     unit-cell volume          =     445.1737 (a.u.)^3
     number of atoms/cell      =            4
     number of atomic types    =            1
     number of electrons       =        12.00
     number of Kohn-Sham states=           10
     kinetic-energy cutoff     =      60.0000  Ry
     charge density cutoff     =     260.0000  Ry
     convergence threshold     =      1.0E-06
     mixing beta               =       0.1000
     number of iterations used =           10  TF        mixing
     Exchange-correlation      = SLA PW PBX PBC ( 1  4  3  4 0 0)

     celldm(1)=   7.635600  celldm(2)=   0.000000  celldm(3)=   0.000000
     celldm(4)=   0.000000  celldm(5)=   0.000000  celldm(6)=   0.000000

     crystal axes: (cart. coord. in units of alat)
               a(1) = (   1.000000   0.000000   0.000000 )  
               a(2) = (   0.000000   1.000000   0.000000 )  
               a(3) = (   0.000000   0.000000   1.000000 )  

     reciprocal axes: (cart. coord. in units 2 pi/alat)
               b(1) = (  1.000000  0.000000  0.000000 )  
               b(2) = (  0.000000  1.000000  0.000000 )  
               b(3) = (  0.000000  0.000000  1.000000 )  


     PseudoPot. # 1 for Al read from file:
     /opt/pp/Al.pbe-nl-kjpaw_psl.1.0.0.UPF
     MD5 check sum: 1b67f78b73fe58c7924490f171ce8a1e
     Pseudo is Projector augmented-wave + core cor, Zval =  3.0
     Generated using "atomic" code by A. Dal Corso v.6.3
     Shape of augmentation charge: PSQ
     Using radial grid of 1135 points,  4 beta functions with: 
                l(1) =   0
                l(2) =   0
                l(3) =   1
                l(4) =   1
     Q(r) pseudized with 0 coefficients 


     atomic species   valence    mass     pseudopotential
        Al             3.00    26.98200     Al( 1.00)

     No symmetry found



   Cartesian axes

     site n.     atom                  positions (alat units)
         1           Al  tau(   1) = (  -0.0000654   0.0000190   0.0001361  )
         2           Al  tau(   2) = (   0.5001592   0.4996200   0.0001406  )
         3           Al  tau(   3) = (   0.4998143   0.0000610   0.5005910  )
         4           Al  tau(   4) = (  -0.0000400   0.5004374   0.5003674  )

     number of k points=    14  Marzari-Vanderbilt smearing, width (Ry)=  0.0200
                       cart. coord. in units 2pi/alat
        k(    1) = (   0.1666667   0.1666667   0.1666667), wk =   0.1481481
        k(    2) = (   0.1666667   0.1666667  -0.5000000), wk =   0.1481481
        k(    3) = (   0.1666667  -0.5000000  -0.5000000), wk =   0.1481481
        k(    4) = (  -0.5000000  -0.5000000  -0.5000000), wk =   0.0740741
        k(    5) = (  -0.1666667  -0.1666667   0.1666667), wk =   0.1481481
        k(    6) = (  -0.1666667   0.1666667  -0.1666667), wk =   0.1481481
        k(    7) = (   0.1666667  -0.1666667  -0.1666667), wk =   0.1481481
        k(    8) = (  -0.1666667   0.1666667   0.5000000), wk =   0.1481481
        k(    9) = (  -0.5000000  -0.1666667   0.1666667), wk =   0.1481481
        k(   10) = (   0.5000000  -0.1666667  -0.1666667), wk =   0.1481481
        k(   11) = (  -0.1666667  -0.5000000   0.1666667), wk =   0.1481481
        k(   12) = (  -0.1666667   0.5000000  -0.1666667), wk =   0.1481481
        k(   13) = (  -0.5000000   0.1666667   0.5000000), wk =   0.1481481
        k(   14) = (  -0.5000000   0.5000000   0.1666667), wk =   0.1481481

     Dense  grid:    31439 G-vectors     FFT dimensions: (  40,  40,  40)

     Smooth grid:    28017 G-vectors     FFT dimensions: (  40,  40,  40)

     Estimated max dynamical RAM per process >      14.13 MB

     Estimated total dynamical RAM >      56.52 MB

     Initial potential from superposition of free atoms

     starting charge   11.99084, renormalised to   12.00000
     Starting wfcs are   16 randomized atomic wfcs
     Checking if some PAW data can be deallocated... 

     total cpu time spent up to now is        0.5 secs

     Self-consistent Calculation

     iteration #  1     ecut=    60.00 Ry     beta= 0.10
     Davidson diagonalization with overlap
     ethr =  1.00E-02,  avg # of iterations =  2.9

     Threshold (ethr) on eigenvalues was too large:
     Diagonalizing with lowered threshold

     Davidson diagonalization with overlap
     ethr =  1.90E-04,  avg # of iterations =  2.3

     total cpu time spent up to now is        1.0 secs

     total energy              =    -158.05168757 Ry
     Harris-Foulkes estimate   =    -158.05243067 Ry
     estimated scf accuracy    <       0.02190121 Ry

     iteration #  2     ecut=    60.00 Ry     beta= 0.10
     Davidson diagonalization with overlap
     ethr =  1.83E-04,  avg # of iterations =  1.0

     total cpu time spent up to now is        1.2 secs

     total energy              =    -158.04622506 Ry
     Harris-Foulkes estimate   =    -158.05183204 Ry
     estimated scf accuracy    <       0.01889666 Ry

     iteration #  3     ecut=    60.00 Ry     beta= 0.10
     Davidson diagonalization with overlap
     ethr =  1.57E-04,  avg # of iterations =  1.0

     total cpu time spent up to now is        1.4 secs

     total energy              =    -158.04649555 Ry
     Harris-Foulkes estimate   =    -158.04654089 Ry
     estimated scf accuracy    <       0.00009074 Ry

     iteration #  4     ecut=    60.00 Ry     beta= 0.10
     Davidson diagonalization with overlap
     ethr =  7.56E-07,  avg # of iterations =  5.7

     total cpu time spent up to now is        1.8 secs

     total energy              =    -158.04653966 Ry
     Harris-Foulkes estimate   =    -158.04655803 Ry
     estimated scf accuracy    <       0.00005456 Ry

     iteration #  5     ecut=    60.00 Ry     beta= 0.10
     Davidson diagonalization with overlap
     ethr =  4.55E-07,  avg # of iterations =  1.1

     total cpu time spent up to now is        2.0 secs

     total energy              =    -158.04650843 Ry
     Harris-Foulkes estimate   =    -158.04654230 Ry
     estimated scf accuracy    <       0.00004158 Ry

     iteration #  6     ecut=    60.00 Ry     beta= 0.10
     Davidson diagonalization with overlap
     ethr =  3.46E-07,  avg # of iterations =  2.0

     total cpu time spent up to now is        2.2 secs

     total energy              =    -158.04651565 Ry
     Harris-Foulkes estimate   =    -158.04651596 Ry
     estimated scf accuracy    <       0.00000107 Ry

     iteration #  7     ecut=    60.00 Ry     beta= 0.10
     Davidson diagonalization with overlap
     ethr =  8.93E-09,  avg # of iterations =  1.7

     total cpu time spent up to now is        2.4 secs

     End of self-consistent calculation

          k = 0.1667 0.1667 0.1667 (  3488 PWs)   bands (ev):

    -2.4777   3.3893   3.3917   3.3942   8.9374   8.9421   8.9467   9.4194
     9.4202   9.4210

          k = 0.1667 0.1667-0.5000 (  3496 PWs)   bands (ev):

    -0.4907  -0.4825   5.1703   5.1706   5.4433   5.4438  10.9097  10.9133
    10.9136  10.9192

          k = 0.1667-0.5000-0.5000 (  3496 PWs)   bands (ev):

     1.4727   1.4733   1.4812   1.4821   7.2036   7.2043   7.2126   7.2136
    13.0181  13.0209

          k =-0.5000-0.5000-0.5000 (  3448 PWs)   bands (ev):

     3.3120   3.3121   3.3123   3.3124   3.5313   3.5319   3.5320   3.5322
    19.3163  19.3168

          k =-0.1667-0.1667 0.1667 (  3488 PWs)   bands (ev):

    -2.4777   3.3898   3.3918   3.3937   8.9384   8.9421   8.9457   9.4195
     9.4203   9.4209

          k =-0.1667 0.1667-0.1667 (  3488 PWs)   bands (ev):

    -2.4777   3.3904   3.3917   3.3931   8.9394   8.9420   8.9448   9.4198
     9.4202   9.4207

          k = 0.1667-0.1667-0.1667 (  3488 PWs)   bands (ev):

    -2.4777   3.3900   3.3918   3.3935   8.9388   8.9421   8.9453   9.4196
     9.4203   9.4208

          k =-0.1667 0.1667 0.5000 (  3496 PWs)   bands (ev):

    -0.4907  -0.4825   5.1703   5.1706   5.4432   5.4438  10.9097  10.9134
    10.9135  10.9191

          k =-0.5000-0.1667 0.1667 (  3496 PWs)   bands (ev):

    -0.4871  -0.4862   5.1704   5.1706   5.4432   5.4436  10.9122  10.9129
    10.9148  10.9159

          k = 0.5000-0.1667-0.1667 (  3496 PWs)   bands (ev):

    -0.4871  -0.4862   5.1704   5.1706   5.4432   5.4436  10.9131  10.9141
    10.9151  11.4950

          k =-0.1667-0.5000 0.1667 (  3496 PWs)   bands (ev):

    -0.4868  -0.4865   5.1705   5.1705   5.4433   5.4435  10.9121  10.9134
    10.9145  10.9158

          k =-0.1667 0.5000-0.1667 (  3496 PWs)   bands (ev):

    -0.4868  -0.4865   5.1705   5.1706   5.4434   5.4435  10.9119  10.9134
    10.9145  10.9160

          k =-0.5000 0.1667 0.5000 (  3496 PWs)   bands (ev):

     1.4727   1.4736   1.4809   1.4821   7.2036   7.2046   7.2123   7.2136
    13.0178  13.0249

          k =-0.5000 0.5000 0.1667 (  3496 PWs)   bands (ev):

     1.4754   1.4765   1.4781   1.4793   7.2063   7.2075   7.2095   7.2108
    13.0197  13.0213

     the Fermi energy is     8.7572 ev

!    total energy              =    -158.04651504 Ry
     Harris-Foulkes estimate   =    -158.04651572 Ry
     estimated scf accuracy    <       0.00000087 Ry

     total all-electron energy =     -1942.617637 Ry

     The total energy is the sum of the following terms:

     one-electron contribution =      12.62566083 Ry
     hartree contribution      =       0.02531510 Ry
     xc contribution           =     -10.36593097 Ry
     ewald contribution        =     -21.61650269 Ry
     one-center paw contrib.   =    -138.71217888 Ry
     smearing contrib. (-TS)   =      -0.00287844 Ry

     convergence has been achieved in   7 iterations

     Forces acting on atoms (cartesian axes, Ry/au):

     atom    1 type  1   force =     0.00007726   -0.00005562    0.00037358
     atom    2 type  1   force =    -0.00017038    0.00016226    0.00037957
     atom    3 type  1   force =     0.00001375    0.00005284   -0.00047454
     atom    4 type  1   force =     0.00007938   -0.00015948   -0.00027862

     Total force =     0.000828     Total SCF correction =     0.000203
     SCF correction compared to forces is large: reduce conv_thr to get better values


     Computing stress (Cartesian axis) and pressure

          total   stress  (Ry/bohr**3)                   (kbar)     P=   -2.06
  -0.00001399  -0.00000001  -0.00000000         -2.06     -0.00     -0.00
  -0.00000001  -0.00001396   0.00000001         -0.00     -2.05      0.00
  -0.00000000   0.00000001  -0.00001399         -0.00      0.00     -2.06


     Writing output data file fe_scf_fcc_2.save/

     init_run     :      0.20s CPU      0.22s WALL (       1 calls)
     electrons    :      1.82s CPU      1.87s WALL (       1 calls)
     forces       :      0.05s CPU      0.05s WALL (       1 calls)
     stress       :      0.10s CPU      0.10s WALL (       1 calls)

     Called by init_run:
     wfcinit      :      0.10s CPU      0.11s WALL (       1 calls)
     potinit      :      0.04s CPU      0.04s WALL (       1 calls)
     hinit0       :      0.05s CPU      0.05s WALL (       1 calls)

     Called by electrons:
     c_bands      :      1.27s CPU      1.31s WALL (       8 calls)
     sum_band     :      0.24s CPU      0.25s WALL (       8 calls)
     v_of_rho     :      0.06s CPU      0.06s WALL (       8 calls)
     newd         :      0.03s CPU      0.04s WALL (       8 calls)
     PAW_pot      :      0.24s CPU      0.25s WALL (       8 calls)
     mix_rho      :      0.01s CPU      0.01s WALL (       8 calls)

     Called by c_bands:
     init_us_2    :      0.03s CPU      0.03s WALL (     266 calls)
     cegterg      :      1.23s CPU      1.26s WALL (     112 calls)

     Called by sum_band:
     sum_band:bec :      0.00s CPU      0.00s WALL (     112 calls)
     addusdens    :      0.03s CPU      0.03s WALL (       8 calls)

     Called by *egterg:
     h_psi        :      1.01s CPU      1.04s WALL (     375 calls)
     s_psi        :      0.07s CPU      0.07s WALL (     375 calls)
     g_psi        :      0.00s CPU      0.01s WALL (     249 calls)
     cdiaghg      :      0.04s CPU      0.04s WALL (     347 calls)

     Called by h_psi:
     h_psi:pot    :      1.01s CPU      1.04s WALL (     375 calls)
     h_psi:calbec :      0.09s CPU      0.10s WALL (     375 calls)
     vloc_psi     :      0.85s CPU      0.87s WALL (     375 calls)
     add_vuspsi   :      0.07s CPU      0.07s WALL (     375 calls)

     General routines
     calbec       :      0.15s CPU      0.16s WALL (     557 calls)
     fft          :      0.04s CPU      0.04s WALL (     128 calls)
     ffts         :      0.00s CPU      0.00s WALL (      16 calls)
     fftw         :      0.93s CPU      0.96s WALL (    7224 calls)
     interpolate  :      0.00s CPU      0.00s WALL (       8 calls)

     Parallel routines
     fft_scatt_xy :      0.10s CPU      0.10s WALL (    7368 calls)
     fft_scatt_yz :      0.30s CPU      0.31s WALL (    7368 calls)

     PWSCF        :      2.49s CPU      2.57s WALL


   This run was terminated on:   4:37:40  19Mar2020            

=------------------------------------------------------------------------------=
   JOB DONE.
=------------------------------------------------------------------------------=
