
     Program PWSCF v.6.4.1 starts on 19Mar2020 at  4:34:57 

     This program is part of the open-source Quantum ESPRESSO suite
     for quantum simulation of materials; please cite
         "P. Giannozzi et al., J. Phys.:Condens. Matter 21 395502 (2009);
         "P. Giannozzi et al., J. Phys.:Condens. Matter 29 465901 (2017);
          URL http://www.quantum-espresso.org", 
     in publications or presentations arising from this work. More details at
     http://www.quantum-espresso.org/quote

     Parallel version (MPI), running on     4 processors

     MPI processes distributed on     1 nodes
     R & G space division:  proc/nbgrp/npool/nimage =       4
     Reading input from wd/ecut/file_000031.in
Warning: card &IONS ignored
Warning: card ION_DYNAMICS = 'BFGS', ignored
Warning: card / ignored
Warning: card &CELL ignored
Warning: card CELL_DYNAMICS = 'BFGS', ignored
Warning: card CELL_FACTOR = 2.0, ignored
Warning: card PRESS = 0.0, ignored
Warning: card / ignored

     Current dimensions of program PWSCF are:
     Max number of different atomic species (ntypx) = 10
     Max number of k-points (npk) =  40000
     Max angular momentum in pseudopotentials (lmaxx) =  3
               file Al.pbe-nl-kjpaw_psl.1.0.0.UPF: wavefunction(s)  3S 3P renormalized

     Subspace diagonalization in iterative solution of the eigenvalue problem:
     a serial algorithm will be used


     Parallelization info
     --------------------
     sticks:   dense  smooth     PW     G-vecs:    dense   smooth      PW
     Min         105     105     45                 1599     1599     465
     Max         106     106     47                 1602     1602     467
     Sum         421     421    185                 6403     6403    1863



     bravais-lattice index     =            0
     lattice parameter (alat)  =       7.6356  a.u.
     unit-cell volume          =     445.1737 (a.u.)^3
     number of atoms/cell      =            4
     number of atomic types    =            1
     number of electrons       =        12.00
     number of Kohn-Sham states=           10
     kinetic-energy cutoff     =      31.0000  Ry
     charge density cutoff     =      90.0000  Ry
     convergence threshold     =      1.0E-06
     mixing beta               =       0.1000
     number of iterations used =           10  TF        mixing
     Exchange-correlation      = SLA PW PBX PBC ( 1  4  3  4 0 0)

     celldm(1)=   7.635600  celldm(2)=   0.000000  celldm(3)=   0.000000
     celldm(4)=   0.000000  celldm(5)=   0.000000  celldm(6)=   0.000000

     crystal axes: (cart. coord. in units of alat)
               a(1) = (   1.000000   0.000000   0.000000 )  
               a(2) = (   0.000000   1.000000   0.000000 )  
               a(3) = (   0.000000   0.000000   1.000000 )  

     reciprocal axes: (cart. coord. in units 2 pi/alat)
               b(1) = (  1.000000  0.000000  0.000000 )  
               b(2) = (  0.000000  1.000000  0.000000 )  
               b(3) = (  0.000000  0.000000  1.000000 )  


     PseudoPot. # 1 for Al read from file:
     /opt/pp/Al.pbe-nl-kjpaw_psl.1.0.0.UPF
     MD5 check sum: 1b67f78b73fe58c7924490f171ce8a1e
     Pseudo is Projector augmented-wave + core cor, Zval =  3.0
     Generated using "atomic" code by A. Dal Corso v.6.3
     Shape of augmentation charge: PSQ
     Using radial grid of 1135 points,  4 beta functions with: 
                l(1) =   0
                l(2) =   0
                l(3) =   1
                l(4) =   1
     Q(r) pseudized with 0 coefficients 


     atomic species   valence    mass     pseudopotential
        Al             3.00    26.98200     Al( 1.00)

     No symmetry found



   Cartesian axes

     site n.     atom                  positions (alat units)
         1           Al  tau(   1) = (  -0.0000654   0.0000190   0.0001361  )
         2           Al  tau(   2) = (   0.5001592   0.4996200   0.0001406  )
         3           Al  tau(   3) = (   0.4998143   0.0000610   0.5005910  )
         4           Al  tau(   4) = (  -0.0000400   0.5004374   0.5003674  )

     number of k points=    14  Marzari-Vanderbilt smearing, width (Ry)=  0.0200
                       cart. coord. in units 2pi/alat
        k(    1) = (   0.1666667   0.1666667   0.1666667), wk =   0.1481481
        k(    2) = (   0.1666667   0.1666667  -0.5000000), wk =   0.1481481
        k(    3) = (   0.1666667  -0.5000000  -0.5000000), wk =   0.1481481
        k(    4) = (  -0.5000000  -0.5000000  -0.5000000), wk =   0.0740741
        k(    5) = (  -0.1666667  -0.1666667   0.1666667), wk =   0.1481481
        k(    6) = (  -0.1666667   0.1666667  -0.1666667), wk =   0.1481481
        k(    7) = (   0.1666667  -0.1666667  -0.1666667), wk =   0.1481481
        k(    8) = (  -0.1666667   0.1666667   0.5000000), wk =   0.1481481
        k(    9) = (  -0.5000000  -0.1666667   0.1666667), wk =   0.1481481
        k(   10) = (   0.5000000  -0.1666667  -0.1666667), wk =   0.1481481
        k(   11) = (  -0.1666667  -0.5000000   0.1666667), wk =   0.1481481
        k(   12) = (  -0.1666667   0.5000000  -0.1666667), wk =   0.1481481
        k(   13) = (  -0.5000000   0.1666667   0.5000000), wk =   0.1481481
        k(   14) = (  -0.5000000   0.5000000   0.1666667), wk =   0.1481481

     Dense  grid:     6403 G-vectors     FFT dimensions: (  24,  24,  24)

     Estimated max dynamical RAM per process >       3.48 MB

     Estimated total dynamical RAM >      13.90 MB

     Initial potential from superposition of free atoms

     starting charge   11.99084, renormalised to   12.00000
     Starting wfcs are   16 randomized atomic wfcs
     Checking if some PAW data can be deallocated... 

     total cpu time spent up to now is        0.4 secs

     Self-consistent Calculation

     iteration #  1     ecut=    31.00 Ry     beta= 0.10
     Davidson diagonalization with overlap
     ethr =  1.00E-02,  avg # of iterations =  2.9

     Threshold (ethr) on eigenvalues was too large:
     Diagonalizing with lowered threshold

     Davidson diagonalization with overlap
     ethr =  1.89E-04,  avg # of iterations =  2.2

     total cpu time spent up to now is        0.6 secs

     total energy              =    -158.05117830 Ry
     Harris-Foulkes estimate   =    -158.05192605 Ry
     estimated scf accuracy    <       0.02192191 Ry

     iteration #  2     ecut=    31.00 Ry     beta= 0.10
     Davidson diagonalization with overlap
     ethr =  1.83E-04,  avg # of iterations =  1.0

     total cpu time spent up to now is        0.7 secs

     total energy              =    -158.04567781 Ry
     Harris-Foulkes estimate   =    -158.05131299 Ry
     estimated scf accuracy    <       0.01890689 Ry

     iteration #  3     ecut=    31.00 Ry     beta= 0.10
     Davidson diagonalization with overlap
     ethr =  1.58E-04,  avg # of iterations =  1.0

     total cpu time spent up to now is        0.8 secs

     total energy              =    -158.04594498 Ry
     Harris-Foulkes estimate   =    -158.04599267 Ry
     estimated scf accuracy    <       0.00009520 Ry

     iteration #  4     ecut=    31.00 Ry     beta= 0.10
     Davidson diagonalization with overlap
     ethr =  7.93E-07,  avg # of iterations =  5.1

     total cpu time spent up to now is        1.0 secs

     total energy              =    -158.04598663 Ry
     Harris-Foulkes estimate   =    -158.04600614 Ry
     estimated scf accuracy    <       0.00005477 Ry

     iteration #  5     ecut=    31.00 Ry     beta= 0.10
     Davidson diagonalization with overlap
     ethr =  4.56E-07,  avg # of iterations =  1.6

     total cpu time spent up to now is        1.1 secs

     total energy              =    -158.04595358 Ry
     Harris-Foulkes estimate   =    -158.04598903 Ry
     estimated scf accuracy    <       0.00004148 Ry

     iteration #  6     ecut=    31.00 Ry     beta= 0.10
     Davidson diagonalization with overlap
     ethr =  3.46E-07,  avg # of iterations =  2.0

     total cpu time spent up to now is        1.2 secs

     total energy              =    -158.04596093 Ry
     Harris-Foulkes estimate   =    -158.04596132 Ry
     estimated scf accuracy    <       0.00000109 Ry

     iteration #  7     ecut=    31.00 Ry     beta= 0.10
     Davidson diagonalization with overlap
     ethr =  9.06E-09,  avg # of iterations =  1.7

     total cpu time spent up to now is        1.3 secs

     End of self-consistent calculation

          k = 0.1667 0.1667 0.1667 (  1298 PWs)   bands (ev):

    -2.4773   3.3898   3.3922   3.3947   8.9391   8.9438   8.9484   9.4207
     9.4215   9.4223

          k = 0.1667 0.1667-0.5000 (  1300 PWs)   bands (ev):

    -0.4903  -0.4821   5.1711   5.1714   5.4442   5.4447  10.9115  10.9155
    10.9158  10.9210

          k = 0.1667-0.5000-0.5000 (  1284 PWs)   bands (ev):

     1.4732   1.4738   1.4816   1.4826   7.2048   7.2055   7.2138   7.2148
    13.0203  13.0272

          k =-0.5000-0.5000-0.5000 (  1328 PWs)   bands (ev):

     3.3123   3.3124   3.3126   3.3127   3.5321   3.5327   3.5328   3.5331
    19.3170  19.3171

          k =-0.1667-0.1667 0.1667 (  1298 PWs)   bands (ev):

    -2.4773   3.3903   3.3923   3.3942   8.9401   8.9438   8.9474   9.4208
     9.4215   9.4221

          k =-0.1667 0.1667-0.1667 (  1298 PWs)   bands (ev):

    -2.4773   3.3908   3.3922   3.3936   8.9411   8.9438   8.9465   9.4210
     9.4215   9.4219

          k = 0.1667-0.1667-0.1667 (  1298 PWs)   bands (ev):

    -2.4773   3.3905   3.3923   3.3940   8.9405   8.9438   8.9470   9.4209
     9.4215   9.4221

          k =-0.1667 0.1667 0.5000 (  1300 PWs)   bands (ev):

    -0.4903  -0.4821   5.1711   5.1713   5.4442   5.4447  10.9116  10.9156
    10.9158  10.9209

          k =-0.5000-0.1667 0.1667 (  1300 PWs)   bands (ev):

    -0.4867  -0.4857   5.1712   5.1714   5.4442   5.4446  10.9143  10.9151
    10.9168  10.9179

          k = 0.5000-0.1667-0.1667 (  1300 PWs)   bands (ev):

    -0.4867  -0.4857   5.1712   5.1714   5.4442   5.4446  10.9151  10.9157
    10.9160  10.9171

          k =-0.1667-0.5000 0.1667 (  1300 PWs)   bands (ev):

    -0.4864  -0.4861   5.1713   5.1713   5.4442   5.4445  10.9142  10.9157
    10.9163  10.9178

          k =-0.1667 0.5000-0.1667 (  1300 PWs)   bands (ev):

    -0.4864  -0.4861   5.1712   5.1713   5.4443   5.4444  10.9139  10.9156
    10.9164  10.9180

          k =-0.5000 0.1667 0.5000 (  1284 PWs)   bands (ev):

     1.4731   1.4741   1.4813   1.4826   7.2048   7.2058   7.2135   7.2148
    13.0226  13.0270

          k =-0.5000 0.5000 0.1667 (  1284 PWs)   bands (ev):

     1.4759   1.4769   1.4786   1.4797   7.2075   7.2087   7.2107   7.2120
    13.0230  13.0233

     the Fermi energy is     8.7589 ev

!    total energy              =    -158.04596038 Ry
     Harris-Foulkes estimate   =    -158.04596100 Ry
     estimated scf accuracy    <       0.00000082 Ry

     total all-electron energy =     -1942.617082 Ry

     The total energy is the sum of the following terms:

     one-electron contribution =      12.62651085 Ry
     hartree contribution      =       0.02531723 Ry
     xc contribution           =     -10.36592370 Ry
     ewald contribution        =     -21.61650270 Ry
     one-center paw contrib.   =    -138.71248361 Ry
     smearing contrib. (-TS)   =      -0.00287845 Ry

     convergence has been achieved in   7 iterations

     Forces acting on atoms (cartesian axes, Ry/au):

     atom    1 type  1   force =     0.00007762   -0.00005685    0.00037357
     atom    2 type  1   force =    -0.00017025    0.00016083    0.00037782
     atom    3 type  1   force =     0.00001243    0.00005452   -0.00047348
     atom    4 type  1   force =     0.00008020   -0.00015850   -0.00027791

     Total force =     0.000826     Total SCF correction =     0.000205
     SCF correction compared to forces is large: reduce conv_thr to get better values


     Computing stress (Cartesian axis) and pressure

          total   stress  (Ry/bohr**3)                   (kbar)     P=   -2.50
  -0.00001704  -0.00000001  -0.00000000         -2.51     -0.00     -0.00
  -0.00000001  -0.00001701  -0.00000001         -0.00     -2.50     -0.00
  -0.00000000  -0.00000001  -0.00001703         -0.00     -0.00     -2.51


     Writing output data file fe_scf_fcc_2.save/

     init_run     :      0.10s CPU      0.11s WALL (       1 calls)
     electrons    :      0.75s CPU      0.84s WALL (       1 calls)
     forces       :      0.02s CPU      0.02s WALL (       1 calls)
     stress       :      0.03s CPU      0.03s WALL (       1 calls)

     Called by init_run:
     wfcinit      :      0.04s CPU      0.04s WALL (       1 calls)
     potinit      :      0.04s CPU      0.04s WALL (       1 calls)
     hinit0       :      0.03s CPU      0.03s WALL (       1 calls)

     Called by electrons:
     c_bands      :      0.45s CPU      0.51s WALL (       8 calls)
     sum_band     :      0.08s CPU      0.08s WALL (       8 calls)
     v_of_rho     :      0.01s CPU      0.01s WALL (       8 calls)
     newd         :      0.01s CPU      0.01s WALL (       8 calls)
     PAW_pot      :      0.24s CPU      0.26s WALL (       8 calls)
     mix_rho      :      0.00s CPU      0.00s WALL (       8 calls)

     Called by c_bands:
     init_us_2    :      0.01s CPU      0.01s WALL (     266 calls)
     cegterg      :      0.43s CPU      0.49s WALL (     112 calls)

     Called by sum_band:
     sum_band:bec :      0.00s CPU      0.00s WALL (     112 calls)
     addusdens    :      0.00s CPU      0.01s WALL (       8 calls)

     Called by *egterg:
     h_psi        :      0.32s CPU      0.37s WALL (     373 calls)
     s_psi        :      0.02s CPU      0.03s WALL (     373 calls)
     g_psi        :      0.00s CPU      0.00s WALL (     247 calls)
     cdiaghg      :      0.04s CPU      0.04s WALL (     345 calls)

     Called by h_psi:
     h_psi:pot    :      0.32s CPU      0.37s WALL (     373 calls)
     h_psi:calbec :      0.04s CPU      0.04s WALL (     373 calls)
     vloc_psi     :      0.26s CPU      0.30s WALL (     373 calls)
     add_vuspsi   :      0.02s CPU      0.03s WALL (     373 calls)

     General routines
     calbec       :      0.06s CPU      0.06s WALL (     555 calls)
     fft          :      0.01s CPU      0.01s WALL (     114 calls)
     ffts         :      0.00s CPU      0.00s WALL (       8 calls)
     fftw         :      0.29s CPU      0.33s WALL (    7204 calls)

     Parallel routines
     fft_scatt_xy :      0.02s CPU      0.03s WALL (    7326 calls)
     fft_scatt_yz :      0.14s CPU      0.16s WALL (    7326 calls)

     PWSCF        :      1.23s CPU      1.34s WALL


   This run was terminated on:   4:34:58  19Mar2020            

=------------------------------------------------------------------------------=
   JOB DONE.
=------------------------------------------------------------------------------=
