
     Program PWSCF v.6.4.1 starts on 19Mar2020 at  4:35: 0 

     This program is part of the open-source Quantum ESPRESSO suite
     for quantum simulation of materials; please cite
         "P. Giannozzi et al., J. Phys.:Condens. Matter 21 395502 (2009);
         "P. Giannozzi et al., J. Phys.:Condens. Matter 29 465901 (2017);
          URL http://www.quantum-espresso.org", 
     in publications or presentations arising from this work. More details at
     http://www.quantum-espresso.org/quote

     Parallel version (MPI), running on     4 processors

     MPI processes distributed on     1 nodes
     R & G space division:  proc/nbgrp/npool/nimage =       4
     Reading input from wd/ecut/file_000033.in
Warning: card &IONS ignored
Warning: card ION_DYNAMICS = 'BFGS', ignored
Warning: card / ignored
Warning: card &CELL ignored
Warning: card CELL_DYNAMICS = 'BFGS', ignored
Warning: card CELL_FACTOR = 2.0, ignored
Warning: card PRESS = 0.0, ignored
Warning: card / ignored

     Current dimensions of program PWSCF are:
     Max number of different atomic species (ntypx) = 10
     Max number of k-points (npk) =  40000
     Max angular momentum in pseudopotentials (lmaxx) =  3
               file Al.pbe-nl-kjpaw_psl.1.0.0.UPF: wavefunction(s)  3S 3P renormalized

     Subspace diagonalization in iterative solution of the eigenvalue problem:
     a serial algorithm will be used


     Parallelization info
     --------------------
     sticks:   dense  smooth     PW     G-vecs:    dense   smooth      PW
     Min         105     105     44                 1599     1599     434
     Max         106     106     45                 1602     1602     437
     Sum         421     421    177                 6403     6403    1743



     bravais-lattice index     =            0
     lattice parameter (alat)  =       7.6356  a.u.
     unit-cell volume          =     445.1737 (a.u.)^3
     number of atoms/cell      =            4
     number of atomic types    =            1
     number of electrons       =        12.00
     number of Kohn-Sham states=           10
     kinetic-energy cutoff     =      29.0000  Ry
     charge density cutoff     =      90.0000  Ry
     convergence threshold     =      1.0E-06
     mixing beta               =       0.1000
     number of iterations used =           10  TF        mixing
     Exchange-correlation      = SLA PW PBX PBC ( 1  4  3  4 0 0)

     celldm(1)=   7.635600  celldm(2)=   0.000000  celldm(3)=   0.000000
     celldm(4)=   0.000000  celldm(5)=   0.000000  celldm(6)=   0.000000

     crystal axes: (cart. coord. in units of alat)
               a(1) = (   1.000000   0.000000   0.000000 )  
               a(2) = (   0.000000   1.000000   0.000000 )  
               a(3) = (   0.000000   0.000000   1.000000 )  

     reciprocal axes: (cart. coord. in units 2 pi/alat)
               b(1) = (  1.000000  0.000000  0.000000 )  
               b(2) = (  0.000000  1.000000  0.000000 )  
               b(3) = (  0.000000  0.000000  1.000000 )  


     PseudoPot. # 1 for Al read from file:
     /opt/pp/Al.pbe-nl-kjpaw_psl.1.0.0.UPF
     MD5 check sum: 1b67f78b73fe58c7924490f171ce8a1e
     Pseudo is Projector augmented-wave + core cor, Zval =  3.0
     Generated using "atomic" code by A. Dal Corso v.6.3
     Shape of augmentation charge: PSQ
     Using radial grid of 1135 points,  4 beta functions with: 
                l(1) =   0
                l(2) =   0
                l(3) =   1
                l(4) =   1
     Q(r) pseudized with 0 coefficients 


     atomic species   valence    mass     pseudopotential
        Al             3.00    26.98200     Al( 1.00)

     No symmetry found



   Cartesian axes

     site n.     atom                  positions (alat units)
         1           Al  tau(   1) = (  -0.0000654   0.0000190   0.0001361  )
         2           Al  tau(   2) = (   0.5001592   0.4996200   0.0001406  )
         3           Al  tau(   3) = (   0.4998143   0.0000610   0.5005910  )
         4           Al  tau(   4) = (  -0.0000400   0.5004374   0.5003674  )

     number of k points=    14  Marzari-Vanderbilt smearing, width (Ry)=  0.0200
                       cart. coord. in units 2pi/alat
        k(    1) = (   0.1666667   0.1666667   0.1666667), wk =   0.1481481
        k(    2) = (   0.1666667   0.1666667  -0.5000000), wk =   0.1481481
        k(    3) = (   0.1666667  -0.5000000  -0.5000000), wk =   0.1481481
        k(    4) = (  -0.5000000  -0.5000000  -0.5000000), wk =   0.0740741
        k(    5) = (  -0.1666667  -0.1666667   0.1666667), wk =   0.1481481
        k(    6) = (  -0.1666667   0.1666667  -0.1666667), wk =   0.1481481
        k(    7) = (   0.1666667  -0.1666667  -0.1666667), wk =   0.1481481
        k(    8) = (  -0.1666667   0.1666667   0.5000000), wk =   0.1481481
        k(    9) = (  -0.5000000  -0.1666667   0.1666667), wk =   0.1481481
        k(   10) = (   0.5000000  -0.1666667  -0.1666667), wk =   0.1481481
        k(   11) = (  -0.1666667  -0.5000000   0.1666667), wk =   0.1481481
        k(   12) = (  -0.1666667   0.5000000  -0.1666667), wk =   0.1481481
        k(   13) = (  -0.5000000   0.1666667   0.5000000), wk =   0.1481481
        k(   14) = (  -0.5000000   0.5000000   0.1666667), wk =   0.1481481

     Dense  grid:     6403 G-vectors     FFT dimensions: (  24,  24,  24)

     Estimated max dynamical RAM per process >       3.39 MB

     Estimated total dynamical RAM >      13.56 MB

     Initial potential from superposition of free atoms

     starting charge   11.99084, renormalised to   12.00000
     Starting wfcs are   16 randomized atomic wfcs
     Checking if some PAW data can be deallocated... 

     total cpu time spent up to now is        0.4 secs

     Self-consistent Calculation

     iteration #  1     ecut=    29.00 Ry     beta= 0.10
     Davidson diagonalization with overlap
     ethr =  1.00E-02,  avg # of iterations =  2.9

     Threshold (ethr) on eigenvalues was too large:
     Diagonalizing with lowered threshold

     Davidson diagonalization with overlap
     ethr =  1.90E-04,  avg # of iterations =  2.3

     total cpu time spent up to now is        0.6 secs

     total energy              =    -158.05095161 Ry
     Harris-Foulkes estimate   =    -158.05169884 Ry
     estimated scf accuracy    <       0.02192019 Ry

     iteration #  2     ecut=    29.00 Ry     beta= 0.10
     Davidson diagonalization with overlap
     ethr =  1.83E-04,  avg # of iterations =  1.0

     total cpu time spent up to now is        0.7 secs

     total energy              =    -158.04545082 Ry
     Harris-Foulkes estimate   =    -158.05108391 Ry
     estimated scf accuracy    <       0.01890592 Ry

     iteration #  3     ecut=    29.00 Ry     beta= 0.10
     Davidson diagonalization with overlap
     ethr =  1.58E-04,  avg # of iterations =  1.0

     total cpu time spent up to now is        0.8 secs

     total energy              =    -158.04571552 Ry
     Harris-Foulkes estimate   =    -158.04576338 Ry
     estimated scf accuracy    <       0.00009562 Ry

     iteration #  4     ecut=    29.00 Ry     beta= 0.10
     Davidson diagonalization with overlap
     ethr =  7.97E-07,  avg # of iterations =  5.0

     total cpu time spent up to now is        0.9 secs

     total energy              =    -158.04575749 Ry
     Harris-Foulkes estimate   =    -158.04577651 Ry
     estimated scf accuracy    <       0.00005466 Ry

     iteration #  5     ecut=    29.00 Ry     beta= 0.10
     Davidson diagonalization with overlap
     ethr =  4.56E-07,  avg # of iterations =  1.1

     total cpu time spent up to now is        1.0 secs

     total energy              =    -158.04572480 Ry
     Harris-Foulkes estimate   =    -158.04576000 Ry
     estimated scf accuracy    <       0.00004244 Ry

     iteration #  6     ecut=    29.00 Ry     beta= 0.10
     Davidson diagonalization with overlap
     ethr =  3.54E-07,  avg # of iterations =  2.0

     total cpu time spent up to now is        1.1 secs

     total energy              =    -158.04573204 Ry
     Harris-Foulkes estimate   =    -158.04573236 Ry
     estimated scf accuracy    <       0.00000110 Ry

     iteration #  7     ecut=    29.00 Ry     beta= 0.10
     Davidson diagonalization with overlap
     ethr =  9.16E-09,  avg # of iterations =  1.6

     total cpu time spent up to now is        1.2 secs

     End of self-consistent calculation

          k = 0.1667 0.1667 0.1667 (  1201 PWs)   bands (ev):

    -2.4772   3.3901   3.3925   3.3950   8.9397   8.9443   8.9489   9.4209
     9.4217   9.4225

          k = 0.1667 0.1667-0.5000 (  1160 PWs)   bands (ev):

    -0.4902  -0.4820   5.1715   5.1718   5.4446   5.4451  10.9123  10.9160
    10.9216  11.4963

          k = 0.1667-0.5000-0.5000 (  1180 PWs)   bands (ev):

     1.4734   1.4741   1.4819   1.4828   7.2052   7.2059   7.2142   7.2153
    13.0191  13.0247

          k =-0.5000-0.5000-0.5000 (  1208 PWs)   bands (ev):

     3.3124   3.3126   3.3127   3.3129   3.5326   3.5332   3.5333   3.5336
    19.3173  19.3175

          k =-0.1667-0.1667 0.1667 (  1201 PWs)   bands (ev):

    -2.4772   3.3906   3.3926   3.3945   8.9406   8.9444   8.9480   9.4210
     9.4217   9.4224

          k =-0.1667 0.1667-0.1667 (  1201 PWs)   bands (ev):

    -2.4772   3.3912   3.3925   3.3940   8.9416   8.9443   8.9470   9.4213
     9.4217   9.4222

          k = 0.1667-0.1667-0.1667 (  1201 PWs)   bands (ev):

    -2.4772   3.3908   3.3926   3.3943   8.9410   8.9443   8.9475   9.4211
     9.4217   9.4223

          k =-0.1667 0.1667 0.5000 (  1160 PWs)   bands (ev):

    -0.4902  -0.4820   5.1716   5.1718   5.4446   5.4451  10.9124  10.9216
    11.4951  11.4964

          k =-0.5000-0.1667 0.1667 (  1160 PWs)   bands (ev):

    -0.4866  -0.4856   5.1716   5.1718   5.4446   5.4450  10.9148  10.9156
    10.9174  10.9185

          k = 0.5000-0.1667-0.1667 (  1160 PWs)   bands (ev):

    -0.4866  -0.4856   5.1717   5.1718   5.4446   5.4450  10.9156  10.9162
    10.9166  10.9177

          k =-0.1667-0.5000 0.1667 (  1160 PWs)   bands (ev):

    -0.4863  -0.4859   5.1717   5.1718   5.4447   5.4449  10.9147  10.9162
    10.9170  10.9183

          k =-0.1667 0.5000-0.1667 (  1160 PWs)   bands (ev):

    -0.4863  -0.4859   5.1717   5.1718   5.4447   5.4449  10.9145  10.9161
    10.9171  10.9186

          k =-0.5000 0.1667 0.5000 (  1180 PWs)   bands (ev):

     1.4734   1.4744   1.4816   1.4828   7.2053   7.2063   7.2139   7.2153
    13.0223  13.0277

          k =-0.5000 0.5000 0.1667 (  1180 PWs)   bands (ev):

     1.4761   1.4772   1.4789   1.4800   7.2080   7.2092   7.2111   7.2124
    13.0226  13.0238

     the Fermi energy is     8.7594 ev

!    total energy              =    -158.04573146 Ry
     Harris-Foulkes estimate   =    -158.04573210 Ry
     estimated scf accuracy    <       0.00000083 Ry

     total all-electron energy =     -1942.616854 Ry

     The total energy is the sum of the following terms:

     one-electron contribution =      12.62694231 Ry
     hartree contribution      =       0.02531381 Ry
     xc contribution           =     -10.36593909 Ry
     ewald contribution        =     -21.61650270 Ry
     one-center paw contrib.   =    -138.71266733 Ry
     smearing contrib. (-TS)   =      -0.00287846 Ry

     convergence has been achieved in   7 iterations

     Forces acting on atoms (cartesian axes, Ry/au):

     atom    1 type  1   force =     0.00007736   -0.00005724    0.00037221
     atom    2 type  1   force =    -0.00017255    0.00015935    0.00037665
     atom    3 type  1   force =     0.00001344    0.00005558   -0.00047500
     atom    4 type  1   force =     0.00008175   -0.00015769   -0.00027386

     Total force =     0.000825     Total SCF correction =     0.000212
     SCF correction compared to forces is large: reduce conv_thr to get better values


     Computing stress (Cartesian axis) and pressure

          total   stress  (Ry/bohr**3)                   (kbar)     P=   -2.64
  -0.00001795  -0.00000000  -0.00000000         -2.64     -0.00     -0.00
  -0.00000000  -0.00001791   0.00000000         -0.00     -2.64      0.00
  -0.00000000   0.00000000  -0.00001795         -0.00      0.00     -2.64


     Writing output data file fe_scf_fcc_2.save/

     init_run     :      0.10s CPU      0.11s WALL (       1 calls)
     electrons    :      0.72s CPU      0.80s WALL (       1 calls)
     forces       :      0.02s CPU      0.02s WALL (       1 calls)
     stress       :      0.03s CPU      0.03s WALL (       1 calls)

     Called by init_run:
     wfcinit      :      0.03s CPU      0.04s WALL (       1 calls)
     potinit      :      0.04s CPU      0.04s WALL (       1 calls)
     hinit0       :      0.03s CPU      0.03s WALL (       1 calls)

     Called by electrons:
     c_bands      :      0.42s CPU      0.48s WALL (       8 calls)
     sum_band     :      0.07s CPU      0.08s WALL (       8 calls)
     v_of_rho     :      0.01s CPU      0.01s WALL (       8 calls)
     newd         :      0.01s CPU      0.01s WALL (       8 calls)
     PAW_pot      :      0.25s CPU      0.25s WALL (       8 calls)
     mix_rho      :      0.00s CPU      0.00s WALL (       8 calls)

     Called by c_bands:
     init_us_2    :      0.01s CPU      0.01s WALL (     266 calls)
     cegterg      :      0.40s CPU      0.46s WALL (     112 calls)

     Called by sum_band:
     sum_band:bec :      0.00s CPU      0.00s WALL (     112 calls)
     addusdens    :      0.00s CPU      0.01s WALL (       8 calls)

     Called by *egterg:
     h_psi        :      0.31s CPU      0.35s WALL (     363 calls)
     s_psi        :      0.02s CPU      0.03s WALL (     363 calls)
     g_psi        :      0.00s CPU      0.00s WALL (     237 calls)
     cdiaghg      :      0.04s CPU      0.04s WALL (     335 calls)

     Called by h_psi:
     h_psi:pot    :      0.31s CPU      0.35s WALL (     363 calls)
     h_psi:calbec :      0.03s CPU      0.04s WALL (     363 calls)
     vloc_psi     :      0.25s CPU      0.29s WALL (     363 calls)
     add_vuspsi   :      0.02s CPU      0.03s WALL (     363 calls)

     General routines
     calbec       :      0.05s CPU      0.06s WALL (     545 calls)
     fft          :      0.01s CPU      0.01s WALL (     114 calls)
     ffts         :      0.00s CPU      0.00s WALL (       8 calls)
     fftw         :      0.28s CPU      0.32s WALL (    7166 calls)

     Parallel routines
     fft_scatt_xy :      0.02s CPU      0.03s WALL (    7288 calls)
     fft_scatt_yz :      0.14s CPU      0.16s WALL (    7288 calls)

     PWSCF        :      1.19s CPU      1.28s WALL


   This run was terminated on:   4:35: 1  19Mar2020            

=------------------------------------------------------------------------------=
   JOB DONE.
=------------------------------------------------------------------------------=
