
     Program PWSCF v.6.4.1 starts on 19Mar2020 at  4:37:26 

     This program is part of the open-source Quantum ESPRESSO suite
     for quantum simulation of materials; please cite
         "P. Giannozzi et al., J. Phys.:Condens. Matter 21 395502 (2009);
         "P. Giannozzi et al., J. Phys.:Condens. Matter 29 465901 (2017);
          URL http://www.quantum-espresso.org", 
     in publications or presentations arising from this work. More details at
     http://www.quantum-espresso.org/quote

     Parallel version (MPI), running on     4 processors

     MPI processes distributed on     1 nodes
     R & G space division:  proc/nbgrp/npool/nimage =       4
     Reading input from wd/ecut/file_000094.in
Warning: card &IONS ignored
Warning: card ION_DYNAMICS = 'BFGS', ignored
Warning: card / ignored
Warning: card &CELL ignored
Warning: card CELL_DYNAMICS = 'BFGS', ignored
Warning: card CELL_FACTOR = 2.0, ignored
Warning: card PRESS = 0.0, ignored
Warning: card / ignored

     Current dimensions of program PWSCF are:
     Max number of different atomic species (ntypx) = 10
     Max number of k-points (npk) =  40000
     Max angular momentum in pseudopotentials (lmaxx) =  3
               file Al.pbe-nl-kjpaw_psl.1.0.0.UPF: wavefunction(s)  3S 3P renormalized

     Subspace diagonalization in iterative solution of the eigenvalue problem:
     a serial algorithm will be used


     Parallelization info
     --------------------
     sticks:   dense  smooth     PW     G-vecs:    dense   smooth      PW
     Min         300     187     58                 7858     3817     650
     Max         301     188     59                 7863     3820     651
     Sum        1201     749    233                31439    15275    2601



     bravais-lattice index     =            0
     lattice parameter (alat)  =       7.6356  a.u.
     unit-cell volume          =     445.1737 (a.u.)^3
     number of atoms/cell      =            4
     number of atomic types    =            1
     number of electrons       =        12.00
     number of Kohn-Sham states=           10
     kinetic-energy cutoff     =      40.0000  Ry
     charge density cutoff     =     260.0000  Ry
     convergence threshold     =      1.0E-06
     mixing beta               =       0.1000
     number of iterations used =           10  TF        mixing
     Exchange-correlation      = SLA PW PBX PBC ( 1  4  3  4 0 0)

     celldm(1)=   7.635600  celldm(2)=   0.000000  celldm(3)=   0.000000
     celldm(4)=   0.000000  celldm(5)=   0.000000  celldm(6)=   0.000000

     crystal axes: (cart. coord. in units of alat)
               a(1) = (   1.000000   0.000000   0.000000 )  
               a(2) = (   0.000000   1.000000   0.000000 )  
               a(3) = (   0.000000   0.000000   1.000000 )  

     reciprocal axes: (cart. coord. in units 2 pi/alat)
               b(1) = (  1.000000  0.000000  0.000000 )  
               b(2) = (  0.000000  1.000000  0.000000 )  
               b(3) = (  0.000000  0.000000  1.000000 )  


     PseudoPot. # 1 for Al read from file:
     /opt/pp/Al.pbe-nl-kjpaw_psl.1.0.0.UPF
     MD5 check sum: 1b67f78b73fe58c7924490f171ce8a1e
     Pseudo is Projector augmented-wave + core cor, Zval =  3.0
     Generated using "atomic" code by A. Dal Corso v.6.3
     Shape of augmentation charge: PSQ
     Using radial grid of 1135 points,  4 beta functions with: 
                l(1) =   0
                l(2) =   0
                l(3) =   1
                l(4) =   1
     Q(r) pseudized with 0 coefficients 


     atomic species   valence    mass     pseudopotential
        Al             3.00    26.98200     Al( 1.00)

     No symmetry found



   Cartesian axes

     site n.     atom                  positions (alat units)
         1           Al  tau(   1) = (  -0.0000654   0.0000190   0.0001361  )
         2           Al  tau(   2) = (   0.5001592   0.4996200   0.0001406  )
         3           Al  tau(   3) = (   0.4998143   0.0000610   0.5005910  )
         4           Al  tau(   4) = (  -0.0000400   0.5004374   0.5003674  )

     number of k points=    14  Marzari-Vanderbilt smearing, width (Ry)=  0.0200
                       cart. coord. in units 2pi/alat
        k(    1) = (   0.1666667   0.1666667   0.1666667), wk =   0.1481481
        k(    2) = (   0.1666667   0.1666667  -0.5000000), wk =   0.1481481
        k(    3) = (   0.1666667  -0.5000000  -0.5000000), wk =   0.1481481
        k(    4) = (  -0.5000000  -0.5000000  -0.5000000), wk =   0.0740741
        k(    5) = (  -0.1666667  -0.1666667   0.1666667), wk =   0.1481481
        k(    6) = (  -0.1666667   0.1666667  -0.1666667), wk =   0.1481481
        k(    7) = (   0.1666667  -0.1666667  -0.1666667), wk =   0.1481481
        k(    8) = (  -0.1666667   0.1666667   0.5000000), wk =   0.1481481
        k(    9) = (  -0.5000000  -0.1666667   0.1666667), wk =   0.1481481
        k(   10) = (   0.5000000  -0.1666667  -0.1666667), wk =   0.1481481
        k(   11) = (  -0.1666667  -0.5000000   0.1666667), wk =   0.1481481
        k(   12) = (  -0.1666667   0.5000000  -0.1666667), wk =   0.1481481
        k(   13) = (  -0.5000000   0.1666667   0.5000000), wk =   0.1481481
        k(   14) = (  -0.5000000   0.5000000   0.1666667), wk =   0.1481481

     Dense  grid:    31439 G-vectors     FFT dimensions: (  40,  40,  40)

     Smooth grid:    15275 G-vectors     FFT dimensions: (  32,  32,  32)

     Estimated max dynamical RAM per process >      13.01 MB

     Estimated total dynamical RAM >      52.03 MB

     Initial potential from superposition of free atoms

     starting charge   11.99084, renormalised to   12.00000
     Starting wfcs are   16 randomized atomic wfcs
     Checking if some PAW data can be deallocated... 

     total cpu time spent up to now is        0.5 secs

     Self-consistent Calculation

     iteration #  1     ecut=    40.00 Ry     beta= 0.10
     Davidson diagonalization with overlap
     ethr =  1.00E-02,  avg # of iterations =  2.9

     Threshold (ethr) on eigenvalues was too large:
     Diagonalizing with lowered threshold

     Davidson diagonalization with overlap
     ethr =  1.90E-04,  avg # of iterations =  2.3

     total cpu time spent up to now is        0.7 secs

     total energy              =    -158.05161733 Ry
     Harris-Foulkes estimate   =    -158.05236355 Ry
     estimated scf accuracy    <       0.02191792 Ry

     iteration #  2     ecut=    40.00 Ry     beta= 0.10
     Davidson diagonalization with overlap
     ethr =  1.83E-04,  avg # of iterations =  1.0

     total cpu time spent up to now is        0.9 secs

     total energy              =    -158.04614005 Ry
     Harris-Foulkes estimate   =    -158.05175540 Ry
     estimated scf accuracy    <       0.01890000 Ry

     iteration #  3     ecut=    40.00 Ry     beta= 0.10
     Davidson diagonalization with overlap
     ethr =  1.57E-04,  avg # of iterations =  1.0

     total cpu time spent up to now is        1.0 secs

     total energy              =    -158.04640356 Ry
     Harris-Foulkes estimate   =    -158.04645276 Ry
     estimated scf accuracy    <       0.00009694 Ry

     iteration #  4     ecut=    40.00 Ry     beta= 0.10
     Davidson diagonalization with overlap
     ethr =  8.08E-07,  avg # of iterations =  4.9

     total cpu time spent up to now is        1.2 secs

     total energy              =    -158.04644756 Ry
     Harris-Foulkes estimate   =    -158.04646601 Ry
     estimated scf accuracy    <       0.00005466 Ry

     iteration #  5     ecut=    40.00 Ry     beta= 0.10
     Davidson diagonalization with overlap
     ethr =  4.56E-07,  avg # of iterations =  1.6

     total cpu time spent up to now is        1.3 secs

     total energy              =    -158.04641444 Ry
     Harris-Foulkes estimate   =    -158.04645004 Ry
     estimated scf accuracy    <       0.00004216 Ry

     iteration #  6     ecut=    40.00 Ry     beta= 0.10
     Davidson diagonalization with overlap
     ethr =  3.51E-07,  avg # of iterations =  2.0

     total cpu time spent up to now is        1.4 secs

     total energy              =    -158.04642182 Ry
     Harris-Foulkes estimate   =    -158.04642218 Ry
     estimated scf accuracy    <       0.00000107 Ry

     iteration #  7     ecut=    40.00 Ry     beta= 0.10
     Davidson diagonalization with overlap
     ethr =  8.91E-09,  avg # of iterations =  1.6

     total cpu time spent up to now is        1.5 secs

     End of self-consistent calculation

          k = 0.1667 0.1667 0.1667 (  1905 PWs)   bands (ev):

    -2.4776   3.3894   3.3918   3.3943   8.9376   8.9422   8.9468   9.4195
     9.4203   9.4211

          k = 0.1667 0.1667-0.5000 (  1918 PWs)   bands (ev):

    -0.4907  -0.4825   5.1704   5.1707   5.4433   5.4438  10.9102  10.9135
    10.9192  11.4951

          k = 0.1667-0.5000-0.5000 (  1880 PWs)   bands (ev):

     1.4728   1.4734   1.4812   1.4822   7.2037   7.2044   7.2127   7.2138
    13.0183  13.0213

          k =-0.5000-0.5000-0.5000 (  1904 PWs)   bands (ev):

     3.3121   3.3122   3.3123   3.3125   3.5313   3.5319   3.5320   3.5323
    19.3167  19.3171

          k =-0.1667-0.1667 0.1667 (  1905 PWs)   bands (ev):

    -2.4776   3.3899   3.3918   3.3938   8.9385   8.9423   8.9459   9.4196
     9.4204   9.4210

          k =-0.1667 0.1667-0.1667 (  1905 PWs)   bands (ev):

    -2.4776   3.3904   3.3918   3.3932   8.9395   8.9422   8.9449   9.4199
     9.4203   9.4208

          k = 0.1667-0.1667-0.1667 (  1905 PWs)   bands (ev):

    -2.4776   3.3901   3.3918   3.3935   8.9390   8.9422   8.9454   9.4197
     9.4204   9.4209

          k =-0.1667 0.1667 0.5000 (  1918 PWs)   bands (ev):

    -0.4907  -0.4825   5.1705   5.1707   5.4433   5.4438  10.9099  10.9136
    10.9137  10.9193

          k =-0.5000-0.1667 0.1667 (  1918 PWs)   bands (ev):

    -0.4871  -0.4861   5.1705   5.1707   5.4433   5.4437  10.9126  10.9146
    10.9157  11.4951

          k = 0.5000-0.1667-0.1667 (  1918 PWs)   bands (ev):

    -0.4871  -0.4861   5.1705   5.1707   5.4433   5.4437  10.9132  10.9137
    10.9143  10.9154

          k =-0.1667-0.5000 0.1667 (  1918 PWs)   bands (ev):

    -0.4868  -0.4864   5.1706   5.1707   5.4434   5.4436  10.9123  10.9136
    10.9147  10.9159

          k =-0.1667 0.5000-0.1667 (  1918 PWs)   bands (ev):

    -0.4868  -0.4864   5.1706   5.1707   5.4434   5.4436  10.9121  10.9136
    10.9147  10.9162

          k =-0.5000 0.1667 0.5000 (  1880 PWs)   bands (ev):

     1.4728   1.4737   1.4809   1.4822   7.2037   7.2047   7.2124   7.2138
    13.0178  13.0223

          k =-0.5000 0.5000 0.1667 (  1880 PWs)   bands (ev):

     1.4755   1.4765   1.4782   1.4794   7.2065   7.2076   7.2096   7.2109
    13.0205  13.0222

     the Fermi energy is     8.7573 ev

!    total energy              =    -158.04642124 Ry
     Harris-Foulkes estimate   =    -158.04642189 Ry
     estimated scf accuracy    <       0.00000083 Ry

     total all-electron energy =     -1942.617543 Ry

     The total energy is the sum of the following terms:

     one-electron contribution =      12.62578713 Ry
     hartree contribution      =       0.02531805 Ry
     xc contribution           =     -10.36596376 Ry
     ewald contribution        =     -21.61650269 Ry
     one-center paw contrib.   =    -138.71218153 Ry
     smearing contrib. (-TS)   =      -0.00287844 Ry

     convergence has been achieved in   7 iterations

     Forces acting on atoms (cartesian axes, Ry/au):

     atom    1 type  1   force =     0.00007603   -0.00005527    0.00037301
     atom    2 type  1   force =    -0.00016935    0.00016200    0.00037902
     atom    3 type  1   force =     0.00001285    0.00005263   -0.00047288
     atom    4 type  1   force =     0.00008048   -0.00015936   -0.00027915

     Total force =     0.000826     Total SCF correction =     0.000199
     SCF correction compared to forces is large: reduce conv_thr to get better values


     Computing stress (Cartesian axis) and pressure

          total   stress  (Ry/bohr**3)                   (kbar)     P=   -2.07
  -0.00001406   0.00000000  -0.00000001         -2.07      0.00     -0.00
   0.00000000  -0.00001404  -0.00000000          0.00     -2.06     -0.00
  -0.00000001  -0.00000000  -0.00001406         -0.00     -0.00     -2.07


     Writing output data file fe_scf_fcc_2.save/

     init_run     :      0.15s CPU      0.15s WALL (       1 calls)
     electrons    :      1.00s CPU      1.07s WALL (       1 calls)
     forces       :      0.03s CPU      0.04s WALL (       1 calls)
     stress       :      0.08s CPU      0.08s WALL (       1 calls)

     Called by init_run:
     wfcinit      :      0.05s CPU      0.05s WALL (       1 calls)
     potinit      :      0.04s CPU      0.04s WALL (       1 calls)
     hinit0       :      0.05s CPU      0.05s WALL (       1 calls)

     Called by electrons:
     c_bands      :      0.57s CPU      0.63s WALL (       8 calls)
     sum_band     :      0.13s CPU      0.13s WALL (       8 calls)
     v_of_rho     :      0.06s CPU      0.06s WALL (       8 calls)
     newd         :      0.04s CPU      0.04s WALL (       8 calls)
     PAW_pot      :      0.25s CPU      0.25s WALL (       8 calls)
     mix_rho      :      0.01s CPU      0.01s WALL (       8 calls)

     Called by c_bands:
     init_us_2    :      0.02s CPU      0.02s WALL (     266 calls)
     cegterg      :      0.54s CPU      0.60s WALL (     112 calls)

     Called by sum_band:
     sum_band:bec :      0.00s CPU      0.00s WALL (     112 calls)
     addusdens    :      0.03s CPU      0.03s WALL (       8 calls)

     Called by *egterg:
     h_psi        :      0.41s CPU      0.46s WALL (     369 calls)
     s_psi        :      0.04s CPU      0.04s WALL (     369 calls)
     g_psi        :      0.00s CPU      0.00s WALL (     243 calls)
     cdiaghg      :      0.04s CPU      0.04s WALL (     341 calls)

     Called by h_psi:
     h_psi:pot    :      0.41s CPU      0.46s WALL (     369 calls)
     h_psi:calbec :      0.05s CPU      0.06s WALL (     369 calls)
     vloc_psi     :      0.32s CPU      0.36s WALL (     369 calls)
     add_vuspsi   :      0.04s CPU      0.04s WALL (     369 calls)

     General routines
     calbec       :      0.08s CPU      0.09s WALL (     551 calls)
     fft          :      0.04s CPU      0.04s WALL (     128 calls)
     ffts         :      0.00s CPU      0.00s WALL (      16 calls)
     fftw         :      0.35s CPU      0.39s WALL (    7194 calls)
     interpolate  :      0.00s CPU      0.00s WALL (       8 calls)

     Parallel routines
     fft_scatt_xy :      0.05s CPU      0.06s WALL (    7338 calls)
     fft_scatt_yz :      0.19s CPU      0.21s WALL (    7338 calls)

     PWSCF        :      1.58s CPU      1.68s WALL


   This run was terminated on:   4:37:28  19Mar2020            

=------------------------------------------------------------------------------=
   JOB DONE.
=------------------------------------------------------------------------------=
