
     Program PWSCF v.6.4.1 starts on 19Mar2020 at  4:34:48 

     This program is part of the open-source Quantum ESPRESSO suite
     for quantum simulation of materials; please cite
         "P. Giannozzi et al., J. Phys.:Condens. Matter 21 395502 (2009);
         "P. Giannozzi et al., J. Phys.:Condens. Matter 29 465901 (2017);
          URL http://www.quantum-espresso.org", 
     in publications or presentations arising from this work. More details at
     http://www.quantum-espresso.org/quote

     Parallel version (MPI), running on     4 processors

     MPI processes distributed on     1 nodes
     R & G space division:  proc/nbgrp/npool/nimage =       4
     Reading input from wd/ecut/file_000026.in
Warning: card &IONS ignored
Warning: card ION_DYNAMICS = 'BFGS', ignored
Warning: card / ignored
Warning: card &CELL ignored
Warning: card CELL_DYNAMICS = 'BFGS', ignored
Warning: card CELL_FACTOR = 2.0, ignored
Warning: card PRESS = 0.0, ignored
Warning: card / ignored

     Current dimensions of program PWSCF are:
     Max number of different atomic species (ntypx) = 10
     Max number of k-points (npk) =  40000
     Max angular momentum in pseudopotentials (lmaxx) =  3
               file Al.pbe-nl-kjpaw_psl.1.0.0.UPF: wavefunction(s)  3S 3P renormalized

     Subspace diagonalization in iterative solution of the eigenvalue problem:
     a serial algorithm will be used


     Parallelization info
     --------------------
     sticks:   dense  smooth     PW     G-vecs:    dense   smooth      PW
     Min         105     105     53                 1599     1599     575
     Max         106     106     54                 1602     1602     576
     Sum         421     421    213                 6403     6403    2301



     bravais-lattice index     =            0
     lattice parameter (alat)  =       7.6356  a.u.
     unit-cell volume          =     445.1737 (a.u.)^3
     number of atoms/cell      =            4
     number of atomic types    =            1
     number of electrons       =        12.00
     number of Kohn-Sham states=           10
     kinetic-energy cutoff     =      36.0000  Ry
     charge density cutoff     =      90.0000  Ry
     convergence threshold     =      1.0E-06
     mixing beta               =       0.1000
     number of iterations used =           10  TF        mixing
     Exchange-correlation      = SLA PW PBX PBC ( 1  4  3  4 0 0)

     celldm(1)=   7.635600  celldm(2)=   0.000000  celldm(3)=   0.000000
     celldm(4)=   0.000000  celldm(5)=   0.000000  celldm(6)=   0.000000

     crystal axes: (cart. coord. in units of alat)
               a(1) = (   1.000000   0.000000   0.000000 )  
               a(2) = (   0.000000   1.000000   0.000000 )  
               a(3) = (   0.000000   0.000000   1.000000 )  

     reciprocal axes: (cart. coord. in units 2 pi/alat)
               b(1) = (  1.000000  0.000000  0.000000 )  
               b(2) = (  0.000000  1.000000  0.000000 )  
               b(3) = (  0.000000  0.000000  1.000000 )  


     PseudoPot. # 1 for Al read from file:
     /opt/pp/Al.pbe-nl-kjpaw_psl.1.0.0.UPF
     MD5 check sum: 1b67f78b73fe58c7924490f171ce8a1e
     Pseudo is Projector augmented-wave + core cor, Zval =  3.0
     Generated using "atomic" code by A. Dal Corso v.6.3
     Shape of augmentation charge: PSQ
     Using radial grid of 1135 points,  4 beta functions with: 
                l(1) =   0
                l(2) =   0
                l(3) =   1
                l(4) =   1
     Q(r) pseudized with 0 coefficients 


     atomic species   valence    mass     pseudopotential
        Al             3.00    26.98200     Al( 1.00)

     No symmetry found



   Cartesian axes

     site n.     atom                  positions (alat units)
         1           Al  tau(   1) = (  -0.0000654   0.0000190   0.0001361  )
         2           Al  tau(   2) = (   0.5001592   0.4996200   0.0001406  )
         3           Al  tau(   3) = (   0.4998143   0.0000610   0.5005910  )
         4           Al  tau(   4) = (  -0.0000400   0.5004374   0.5003674  )

     number of k points=    14  Marzari-Vanderbilt smearing, width (Ry)=  0.0200
                       cart. coord. in units 2pi/alat
        k(    1) = (   0.1666667   0.1666667   0.1666667), wk =   0.1481481
        k(    2) = (   0.1666667   0.1666667  -0.5000000), wk =   0.1481481
        k(    3) = (   0.1666667  -0.5000000  -0.5000000), wk =   0.1481481
        k(    4) = (  -0.5000000  -0.5000000  -0.5000000), wk =   0.0740741
        k(    5) = (  -0.1666667  -0.1666667   0.1666667), wk =   0.1481481
        k(    6) = (  -0.1666667   0.1666667  -0.1666667), wk =   0.1481481
        k(    7) = (   0.1666667  -0.1666667  -0.1666667), wk =   0.1481481
        k(    8) = (  -0.1666667   0.1666667   0.5000000), wk =   0.1481481
        k(    9) = (  -0.5000000  -0.1666667   0.1666667), wk =   0.1481481
        k(   10) = (   0.5000000  -0.1666667  -0.1666667), wk =   0.1481481
        k(   11) = (  -0.1666667  -0.5000000   0.1666667), wk =   0.1481481
        k(   12) = (  -0.1666667   0.5000000  -0.1666667), wk =   0.1481481
        k(   13) = (  -0.5000000   0.1666667   0.5000000), wk =   0.1481481
        k(   14) = (  -0.5000000   0.5000000   0.1666667), wk =   0.1481481

     Dense  grid:     6403 G-vectors     FFT dimensions: (  24,  24,  24)

     Estimated max dynamical RAM per process >       3.70 MB

     Estimated total dynamical RAM >      14.81 MB

     Initial potential from superposition of free atoms

     starting charge   11.99084, renormalised to   12.00000
     Starting wfcs are   16 randomized atomic wfcs
     Checking if some PAW data can be deallocated... 

     total cpu time spent up to now is        0.4 secs

     Self-consistent Calculation

     iteration #  1     ecut=    36.00 Ry     beta= 0.10
     Davidson diagonalization with overlap
     ethr =  1.00E-02,  avg # of iterations =  2.9

     Threshold (ethr) on eigenvalues was too large:
     Diagonalizing with lowered threshold

     Davidson diagonalization with overlap
     ethr =  1.90E-04,  avg # of iterations =  2.3

     total cpu time spent up to now is        0.7 secs

     total energy              =    -158.05149751 Ry
     Harris-Foulkes estimate   =    -158.05224543 Ry
     estimated scf accuracy    <       0.02192460 Ry

     iteration #  2     ecut=    36.00 Ry     beta= 0.10
     Davidson diagonalization with overlap
     ethr =  1.83E-04,  avg # of iterations =  1.0

     total cpu time spent up to now is        0.8 secs

     total energy              =    -158.04600769 Ry
     Harris-Foulkes estimate   =    -158.05163640 Ry
     estimated scf accuracy    <       0.01890860 Ry

     iteration #  3     ecut=    36.00 Ry     beta= 0.10
     Davidson diagonalization with overlap
     ethr =  1.58E-04,  avg # of iterations =  1.0

     total cpu time spent up to now is        0.9 secs

     total energy              =    -158.04627135 Ry
     Harris-Foulkes estimate   =    -158.04632034 Ry
     estimated scf accuracy    <       0.00009600 Ry

     iteration #  4     ecut=    36.00 Ry     beta= 0.10
     Davidson diagonalization with overlap
     ethr =  8.00E-07,  avg # of iterations =  4.6

     total cpu time spent up to now is        1.0 secs

     total energy              =    -158.04631478 Ry
     Harris-Foulkes estimate   =    -158.04633362 Ry
     estimated scf accuracy    <       0.00005454 Ry

     iteration #  5     ecut=    36.00 Ry     beta= 0.10
     Davidson diagonalization with overlap
     ethr =  4.54E-07,  avg # of iterations =  2.1

     total cpu time spent up to now is        1.1 secs

     total energy              =    -158.04628264 Ry
     Harris-Foulkes estimate   =    -158.04631727 Ry
     estimated scf accuracy    <       0.00004104 Ry

     iteration #  6     ecut=    36.00 Ry     beta= 0.10
     Davidson diagonalization with overlap
     ethr =  3.42E-07,  avg # of iterations =  2.0

     total cpu time spent up to now is        1.2 secs

     total energy              =    -158.04628991 Ry
     Harris-Foulkes estimate   =    -158.04629025 Ry
     estimated scf accuracy    <       0.00000107 Ry

     iteration #  7     ecut=    36.00 Ry     beta= 0.10
     Davidson diagonalization with overlap
     ethr =  8.91E-09,  avg # of iterations =  1.6

     total cpu time spent up to now is        1.3 secs

     End of self-consistent calculation

          k = 0.1667 0.1667 0.1667 (  1629 PWs)   bands (ev):

    -2.4775   3.3895   3.3919   3.3944   8.9378   8.9425   8.9471   9.4198
     9.4206   9.4214

          k = 0.1667 0.1667-0.5000 (  1622 PWs)   bands (ev):

    -0.4906  -0.4824   5.1705   5.1708   5.4435   5.4440  10.9102  10.9138
    10.9141  10.9197

          k = 0.1667-0.5000-0.5000 (  1616 PWs)   bands (ev):

     1.4729   1.4735   1.4813   1.4823   7.2039   7.2047   7.2129   7.2140
    13.0175  13.0248

          k =-0.5000-0.5000-0.5000 (  1640 PWs)   bands (ev):

     3.3121   3.3122   3.3124   3.3125   3.5315   3.5321   3.5322   3.5324
    19.3166  19.3171

          k =-0.1667-0.1667 0.1667 (  1629 PWs)   bands (ev):

    -2.4775   3.3899   3.3919   3.3938   8.9388   8.9425   8.9461   9.4199
     9.4206   9.4212

          k =-0.1667 0.1667-0.1667 (  1629 PWs)   bands (ev):

    -2.4775   3.3905   3.3919   3.3933   8.9398   8.9425   8.9452   9.4201
     9.4206   9.4210

          k = 0.1667-0.1667-0.1667 (  1629 PWs)   bands (ev):

    -2.4775   3.3902   3.3919   3.3936   8.9392   8.9425   8.9457   9.4200
     9.4206   9.4212

          k =-0.1667 0.1667 0.5000 (  1622 PWs)   bands (ev):

    -0.4906  -0.4824   5.1706   5.1708   5.4435   5.4440  10.9103  10.9139
    10.9141  10.9197

          k =-0.5000-0.1667 0.1667 (  1622 PWs)   bands (ev):

    -0.4870  -0.4860   5.1706   5.1708   5.4435   5.4439  10.9128  10.9135
    10.9153  10.9164

          k = 0.5000-0.1667-0.1667 (  1622 PWs)   bands (ev):

    -0.4870  -0.4860   5.1706   5.1708   5.4435   5.4439  10.9135  10.9140
    10.9147  10.9157

          k =-0.1667-0.5000 0.1667 (  1622 PWs)   bands (ev):

    -0.4867  -0.4863   5.1707   5.1707   5.4436   5.4438  10.9126  10.9140
    10.9151  10.9163

          k =-0.1667 0.5000-0.1667 (  1622 PWs)   bands (ev):

    -0.4867  -0.4863   5.1707   5.1708   5.4436   5.4438  10.9126  10.9151
    10.9163  11.4951

          k =-0.5000 0.1667 0.5000 (  1616 PWs)   bands (ev):

     1.4728   1.4738   1.4810   1.4823   7.2039   7.2050   7.2126   7.2140
    13.0182  13.0251

          k =-0.5000 0.5000 0.1667 (  1616 PWs)   bands (ev):

     1.4756   1.4766   1.4783   1.4794   7.2067   7.2079   7.2098   7.2111
    13.0202  13.0219

     the Fermi energy is     8.7576 ev

!    total energy              =    -158.04628935 Ry
     Harris-Foulkes estimate   =    -158.04628996 Ry
     estimated scf accuracy    <       0.00000084 Ry

     total all-electron energy =     -1942.617411 Ry

     The total energy is the sum of the following terms:

     one-electron contribution =      12.62575055 Ry
     hartree contribution      =       0.02531713 Ry
     xc contribution           =     -10.36582500 Ry
     ewald contribution        =     -21.61650270 Ry
     one-center paw contrib.   =    -138.71215089 Ry
     smearing contrib. (-TS)   =      -0.00287844 Ry

     convergence has been achieved in   7 iterations

     Forces acting on atoms (cartesian axes, Ry/au):

     atom    1 type  1   force =     0.00007560   -0.00005373    0.00037448
     atom    2 type  1   force =    -0.00016837    0.00016116    0.00037853
     atom    3 type  1   force =     0.00001395    0.00005196   -0.00047277
     atom    4 type  1   force =     0.00007883   -0.00015939   -0.00028024

     Total force =     0.000826     Total SCF correction =     0.000198
     SCF correction compared to forces is large: reduce conv_thr to get better values


     Computing stress (Cartesian axis) and pressure

          total   stress  (Ry/bohr**3)                   (kbar)     P=   -2.25
  -0.00001534  -0.00000001  -0.00000000         -2.26     -0.00     -0.00
  -0.00000001  -0.00001531   0.00000001         -0.00     -2.25      0.00
  -0.00000000   0.00000001  -0.00001533         -0.00      0.00     -2.26


     Writing output data file fe_scf_fcc_2.save/

     init_run     :      0.11s CPU      0.11s WALL (       1 calls)
     electrons    :      0.83s CPU      0.91s WALL (       1 calls)
     forces       :      0.02s CPU      0.02s WALL (       1 calls)
     stress       :      0.04s CPU      0.04s WALL (       1 calls)

     Called by init_run:
     wfcinit      :      0.04s CPU      0.04s WALL (       1 calls)
     potinit      :      0.03s CPU      0.04s WALL (       1 calls)
     hinit0       :      0.03s CPU      0.03s WALL (       1 calls)

     Called by electrons:
     c_bands      :      0.51s CPU      0.57s WALL (       8 calls)
     sum_band     :      0.07s CPU      0.09s WALL (       8 calls)
     v_of_rho     :      0.01s CPU      0.01s WALL (       8 calls)
     newd         :      0.01s CPU      0.01s WALL (       8 calls)
     PAW_pot      :      0.25s CPU      0.26s WALL (       8 calls)
     mix_rho      :      0.00s CPU      0.00s WALL (       8 calls)

     Called by c_bands:
     init_us_2    :      0.01s CPU      0.02s WALL (     266 calls)
     cegterg      :      0.49s CPU      0.54s WALL (     112 calls)

     Called by sum_band:
     sum_band:bec :      0.00s CPU      0.00s WALL (     112 calls)
     addusdens    :      0.00s CPU      0.01s WALL (       8 calls)

     Called by *egterg:
     h_psi        :      0.36s CPU      0.40s WALL (     373 calls)
     s_psi        :      0.03s CPU      0.03s WALL (     373 calls)
     g_psi        :      0.00s CPU      0.00s WALL (     247 calls)
     cdiaghg      :      0.04s CPU      0.04s WALL (     345 calls)

     Called by h_psi:
     h_psi:pot    :      0.36s CPU      0.40s WALL (     373 calls)
     h_psi:calbec :      0.05s CPU      0.05s WALL (     373 calls)
     vloc_psi     :      0.28s CPU      0.31s WALL (     373 calls)
     add_vuspsi   :      0.03s CPU      0.03s WALL (     373 calls)

     General routines
     calbec       :      0.07s CPU      0.08s WALL (     555 calls)
     fft          :      0.01s CPU      0.01s WALL (     114 calls)
     ffts         :      0.00s CPU      0.00s WALL (       8 calls)
     fftw         :      0.31s CPU      0.35s WALL (    7196 calls)

     Parallel routines
     fft_scatt_xy :      0.03s CPU      0.03s WALL (    7318 calls)
     fft_scatt_yz :      0.16s CPU      0.18s WALL (    7318 calls)

     PWSCF        :      1.32s CPU      1.42s WALL


   This run was terminated on:   4:34:50  19Mar2020            

=------------------------------------------------------------------------------=
   JOB DONE.
=------------------------------------------------------------------------------=
