
     Program PWSCF v.6.4.1 starts on 19Mar2020 at  4:38:35 

     This program is part of the open-source Quantum ESPRESSO suite
     for quantum simulation of materials; please cite
         "P. Giannozzi et al., J. Phys.:Condens. Matter 21 395502 (2009);
         "P. Giannozzi et al., J. Phys.:Condens. Matter 29 465901 (2017);
          URL http://www.quantum-espresso.org", 
     in publications or presentations arising from this work. More details at
     http://www.quantum-espresso.org/quote

     Parallel version (MPI), running on     4 processors

     MPI processes distributed on     1 nodes
     R & G space division:  proc/nbgrp/npool/nimage =       4
     Reading input from wd/kpoints/file_000115.in
Warning: card &IONS ignored
Warning: card ION_DYNAMICS = 'BFGS', ignored
Warning: card / ignored
Warning: card &CELL ignored
Warning: card CELL_DYNAMICS = 'BFGS', ignored
Warning: card CELL_FACTOR = 2.0, ignored
Warning: card PRESS = 0.0, ignored
Warning: card / ignored

     Current dimensions of program PWSCF are:
     Max number of different atomic species (ntypx) = 10
     Max number of k-points (npk) =  40000
     Max angular momentum in pseudopotentials (lmaxx) =  3
               file Al.pbe-nl-kjpaw_psl.1.0.0.UPF: wavefunction(s)  3S 3P renormalized

     Subspace diagonalization in iterative solution of the eigenvalue problem:
     a serial algorithm will be used


     Parallelization info
     --------------------
     sticks:   dense  smooth     PW     G-vecs:    dense   smooth      PW
     Min         105     105     34                 1599     1599     302
     Max         106     106     35                 1602     1602     305
     Sum         421     421    137                 6403     6403    1213



     bravais-lattice index     =            0
     lattice parameter (alat)  =       7.6356  a.u.
     unit-cell volume          =     445.1737 (a.u.)^3
     number of atoms/cell      =            4
     number of atomic types    =            1
     number of electrons       =        12.00
     number of Kohn-Sham states=           10
     kinetic-energy cutoff     =      26.0000  Ry
     charge density cutoff     =      90.0000  Ry
     convergence threshold     =      1.0E-06
     mixing beta               =       0.1000
     number of iterations used =           10  TF        mixing
     Exchange-correlation      = SLA PW PBX PBC ( 1  4  3  4 0 0)

     celldm(1)=   7.635600  celldm(2)=   0.000000  celldm(3)=   0.000000
     celldm(4)=   0.000000  celldm(5)=   0.000000  celldm(6)=   0.000000

     crystal axes: (cart. coord. in units of alat)
               a(1) = (   1.000000   0.000000   0.000000 )  
               a(2) = (   0.000000   1.000000   0.000000 )  
               a(3) = (   0.000000   0.000000   1.000000 )  

     reciprocal axes: (cart. coord. in units 2 pi/alat)
               b(1) = (  1.000000  0.000000  0.000000 )  
               b(2) = (  0.000000  1.000000  0.000000 )  
               b(3) = (  0.000000  0.000000  1.000000 )  


     PseudoPot. # 1 for Al read from file:
     /opt/pp/Al.pbe-nl-kjpaw_psl.1.0.0.UPF
     MD5 check sum: 1b67f78b73fe58c7924490f171ce8a1e
     Pseudo is Projector augmented-wave + core cor, Zval =  3.0
     Generated using "atomic" code by A. Dal Corso v.6.3
     Shape of augmentation charge: PSQ
     Using radial grid of 1135 points,  4 beta functions with: 
                l(1) =   0
                l(2) =   0
                l(3) =   1
                l(4) =   1
     Q(r) pseudized with 0 coefficients 


     atomic species   valence    mass     pseudopotential
        Al             3.00    26.98200     Al( 1.00)

     No symmetry found



   Cartesian axes

     site n.     atom                  positions (alat units)
         1           Al  tau(   1) = (  -0.0000654   0.0000190   0.0001361  )
         2           Al  tau(   2) = (   0.5001592   0.4996200   0.0001406  )
         3           Al  tau(   3) = (   0.4998143   0.0000610   0.5005910  )
         4           Al  tau(   4) = (  -0.0000400   0.5004374   0.5003674  )

     number of k points=     4  Marzari-Vanderbilt smearing, width (Ry)=  0.0100
                       cart. coord. in units 2pi/alat
        k(    1) = (   0.2500000   0.2500000   0.2500000), wk =   0.5000000
        k(    2) = (  -0.2500000  -0.2500000   0.2500000), wk =   0.5000000
        k(    3) = (  -0.2500000   0.2500000  -0.2500000), wk =   0.5000000
        k(    4) = (   0.2500000  -0.2500000  -0.2500000), wk =   0.5000000

     Dense  grid:     6403 G-vectors     FFT dimensions: (  24,  24,  24)

     Estimated max dynamical RAM per process >       2.89 MB

     Estimated total dynamical RAM >      11.55 MB

     Initial potential from superposition of free atoms

     starting charge   11.99084, renormalised to   12.00000
     Starting wfcs are   16 randomized atomic wfcs
     Checking if some PAW data can be deallocated... 

     total cpu time spent up to now is        0.4 secs

     Self-consistent Calculation

     iteration #  1     ecut=    26.00 Ry     beta= 0.10
     Davidson diagonalization with overlap
     ethr =  1.00E-02,  avg # of iterations =  3.0

     Threshold (ethr) on eigenvalues was too large:
     Diagonalizing with lowered threshold

     Davidson diagonalization with overlap
     ethr =  1.79E-04,  avg # of iterations =  3.0

     total cpu time spent up to now is        0.5 secs

     total energy              =    -157.95420328 Ry
     Harris-Foulkes estimate   =    -157.95496373 Ry
     estimated scf accuracy    <       0.02119090 Ry

     iteration #  2     ecut=    26.00 Ry     beta= 0.10
     Davidson diagonalization with overlap
     ethr =  1.77E-04,  avg # of iterations =  1.0

     total cpu time spent up to now is        0.5 secs

     total energy              =    -157.94897964 Ry
     Harris-Foulkes estimate   =    -157.95441657 Ry
     estimated scf accuracy    <       0.01810738 Ry

     iteration #  3     ecut=    26.00 Ry     beta= 0.10
     Davidson diagonalization with overlap
     ethr =  1.51E-04,  avg # of iterations =  1.0

     total cpu time spent up to now is        0.6 secs

     total energy              =    -157.94917249 Ry
     Harris-Foulkes estimate   =    -157.94929219 Ry
     estimated scf accuracy    <       0.00029369 Ry

     iteration #  4     ecut=    26.00 Ry     beta= 0.10
     Davidson diagonalization with overlap
     ethr =  2.45E-06,  avg # of iterations =  7.5

     total cpu time spent up to now is        0.6 secs

     total energy              =    -157.94918954 Ry
     Harris-Foulkes estimate   =    -157.94923050 Ry
     estimated scf accuracy    <       0.00009761 Ry

     iteration #  5     ecut=    26.00 Ry     beta= 0.10
     Davidson diagonalization with overlap
     ethr =  8.13E-07,  avg # of iterations =  1.0

     total cpu time spent up to now is        0.7 secs

     total energy              =    -157.94915572 Ry
     Harris-Foulkes estimate   =    -157.94919570 Ry
     estimated scf accuracy    <       0.00004999 Ry

     iteration #  6     ecut=    26.00 Ry     beta= 0.10
     Davidson diagonalization with overlap
     ethr =  4.17E-07,  avg # of iterations =  1.0

     total cpu time spent up to now is        0.7 secs

     total energy              =    -157.94915988 Ry
     Harris-Foulkes estimate   =    -157.94915965 Ry
     estimated scf accuracy    <       0.00000766 Ry

     iteration #  7     ecut=    26.00 Ry     beta= 0.10
     Davidson diagonalization with overlap
     ethr =  6.38E-08,  avg # of iterations =  2.0

     total cpu time spent up to now is        0.8 secs

     total energy              =    -157.94916175 Ry
     Harris-Foulkes estimate   =    -157.94916110 Ry
     estimated scf accuracy    <       0.00000168 Ry

     iteration #  8     ecut=    26.00 Ry     beta= 0.10
     Davidson diagonalization with overlap
     ethr =  1.40E-08,  avg # of iterations =  2.0

     total cpu time spent up to now is        0.8 secs

     End of self-consistent calculation

          k = 0.2500 0.2500 0.2500 (  1003 PWs)   bands (ev):

    -1.5407   2.8638   2.8650   2.8659   7.1565   7.1581   7.1593  11.3580
    11.5753  11.5766

          k =-0.2500-0.2500 0.2500 (  1003 PWs)   bands (ev):

    -1.5407   2.8641   2.8649   2.8657   7.1569   7.1580   7.1591  11.5746
    11.5753  11.5765

          k =-0.2500 0.2500-0.2500 (  1003 PWs)   bands (ev):

    -1.5407   2.8642   2.8650   2.8655   7.1571   7.1581   7.1588  11.3580
    11.5754  11.5762

          k = 0.2500-0.2500-0.2500 (  1003 PWs)   bands (ev):

    -1.5407   2.8642   2.8649   2.8656   7.1570   7.1580   7.1589  11.3579
    11.5756  11.5763

     the Fermi energy is     7.2072 ev

!    total energy              =    -157.94916192 Ry
     Harris-Foulkes estimate   =    -157.94916203 Ry
     estimated scf accuracy    <       0.00000056 Ry

     total all-electron energy =     -1942.520284 Ry

     The total energy is the sum of the following terms:

     one-electron contribution =      12.73061557 Ry
     hartree contribution      =       0.02416120 Ry
     xc contribution           =     -10.36656193 Ry
     ewald contribution        =     -21.61650270 Ry
     one-center paw contrib.   =    -138.71353670 Ry
     smearing contrib. (-TS)   =      -0.00733735 Ry

     convergence has been achieved in   8 iterations

     Forces acting on atoms (cartesian axes, Ry/au):

     atom    1 type  1   force =     0.00003395   -0.00003970    0.00029443
     atom    2 type  1   force =     0.00005275   -0.00025432    0.00029988
     atom    3 type  1   force =    -0.00014921    0.00003542   -0.00025818
     atom    4 type  1   force =     0.00006251    0.00025860   -0.00033613

     Total force =     0.000722     Total SCF correction =     0.000064


     Computing stress (Cartesian axis) and pressure

          total   stress  (Ry/bohr**3)                   (kbar)     P=   21.52
   0.00014634  -0.00000003  -0.00000001         21.53     -0.00     -0.00
  -0.00000003   0.00014637   0.00000004         -0.00     21.53      0.01
  -0.00000001   0.00000004   0.00014624         -0.00      0.01     21.51


     Writing output data file fe_scf_fcc_2.save/

     init_run     :      0.07s CPU      0.07s WALL (       1 calls)
     electrons    :      0.42s CPU      0.42s WALL (       1 calls)
     forces       :      0.01s CPU      0.01s WALL (       1 calls)
     stress       :      0.02s CPU      0.02s WALL (       1 calls)

     Called by init_run:
     wfcinit      :      0.01s CPU      0.01s WALL (       1 calls)
     potinit      :      0.03s CPU      0.03s WALL (       1 calls)
     hinit0       :      0.03s CPU      0.03s WALL (       1 calls)

     Called by electrons:
     c_bands      :      0.12s CPU      0.13s WALL (       9 calls)
     sum_band     :      0.03s CPU      0.03s WALL (       9 calls)
     v_of_rho     :      0.01s CPU      0.01s WALL (       9 calls)
     newd         :      0.01s CPU      0.01s WALL (       9 calls)
     PAW_pot      :      0.27s CPU      0.28s WALL (       9 calls)
     mix_rho      :      0.00s CPU      0.00s WALL (       9 calls)

     Called by c_bands:
     init_us_2    :      0.00s CPU      0.00s WALL (      84 calls)
     cegterg      :      0.12s CPU      0.12s WALL (      36 calls)

     Called by sum_band:
     sum_band:bec :      0.00s CPU      0.00s WALL (      36 calls)
     addusdens    :      0.01s CPU      0.01s WALL (       9 calls)

     Called by *egterg:
     h_psi        :      0.08s CPU      0.09s WALL (     126 calls)
     s_psi        :      0.01s CPU      0.01s WALL (     126 calls)
     g_psi        :      0.00s CPU      0.00s WALL (      86 calls)
     cdiaghg      :      0.02s CPU      0.02s WALL (     118 calls)

     Called by h_psi:
     h_psi:pot    :      0.08s CPU      0.08s WALL (     126 calls)
     h_psi:calbec :      0.01s CPU      0.01s WALL (     126 calls)
     vloc_psi     :      0.07s CPU      0.07s WALL (     126 calls)
     add_vuspsi   :      0.01s CPU      0.01s WALL (     126 calls)

     General routines
     calbec       :      0.02s CPU      0.02s WALL (     182 calls)
     fft          :      0.01s CPU      0.01s WALL (     125 calls)
     ffts         :      0.00s CPU      0.00s WALL (       9 calls)
     fftw         :      0.07s CPU      0.07s WALL (    2262 calls)

     Parallel routines
     fft_scatt_xy :      0.01s CPU      0.01s WALL (    2396 calls)
     fft_scatt_yz :      0.03s CPU      0.03s WALL (    2396 calls)

     PWSCF        :      0.85s CPU      0.86s WALL


   This run was terminated on:   4:38:35  19Mar2020            

=------------------------------------------------------------------------------=
   JOB DONE.
=------------------------------------------------------------------------------=
