
     Program PWSCF v.6.3 starts on 31Mar2020 at 18:50:22 

     This program is part of the open-source Quantum ESPRESSO suite
     for quantum simulation of materials; please cite
         "P. Giannozzi et al., J. Phys.:Condens. Matter 21 395502 (2009);
         "P. Giannozzi et al., J. Phys.:Condens. Matter 29 465901 (2017);
          URL http://www.quantum-espresso.org", 
     in publications or presentations arising from this work. More details at
     http://www.quantum-espresso.org/quote

     Parallel version (MPI & OpenMP), running on      20 processor cores
     Number of MPI processes:                20
     Threads/MPI process:                     1

     MPI processes distributed on     1 nodes
     R & G space division:  proc/nbgrp/npool/nimage =      20
     Reading input from wd/kpoints/file_000254.in
Warning: card &IONS ignored
Warning: card ION_DYNAMICS = 'BFGS', ignored
Warning: card / ignored
Warning: card &CELL ignored
Warning: card CELL_DYNAMICS = 'BFGS', ignored
Warning: card CELL_FACTOR = 2.0, ignored
Warning: card PRESS = 0.0, ignored
Warning: card / ignored

     Current dimensions of program PWSCF are:
     Max number of different atomic species (ntypx) = 10
     Max number of k-points (npk) =  40000
     Max angular momentum in pseudopotentials (lmaxx) =  3
               file Pd.pbe-spn-kjpaw_psl.1.0.0.UPF: wavefunction(s)  4S 5S 4D renormalized

     Subspace diagonalization in iterative solution of the eigenvalue problem:
     a serial algorithm will be used

 
     Parallelization info
     --------------------
     sticks:   dense  smooth     PW     G-vecs:    dense   smooth      PW
     Min          99      60     17                 3314     1597     245
     Max         101      62     18                 3315     1603     250
     Sum        1993    1217    349                66299    31967    4945
 


     bravais-lattice index     =            0
     lattice parameter (alat)  =       7.3521  a.u.
     unit-cell volume          =     397.4058 (a.u.)^3
     number of atoms/cell      =            4
     number of atomic types    =            1
     number of electrons       =        72.00
     number of Kohn-Sham states=           43
     kinetic-energy cutoff     =      71.0000  Ry
     charge density cutoff     =     460.0000  Ry
     convergence threshold     =      1.0E-06
     mixing beta               =       0.1000
     number of iterations used =           10  plain     mixing
     Exchange-correlation      = SLA PW PBX PBC ( 1  4  3  4 0 0)

     celldm(1)=   7.352100  celldm(2)=   0.000000  celldm(3)=   0.000000
     celldm(4)=   0.000000  celldm(5)=   0.000000  celldm(6)=   0.000000

     crystal axes: (cart. coord. in units of alat)
               a(1) = (   1.000000   0.000000   0.000000 )  
               a(2) = (   0.000000   1.000000   0.000000 )  
               a(3) = (   0.000000   0.000000   1.000000 )  

     reciprocal axes: (cart. coord. in units 2 pi/alat)
               b(1) = (  1.000000  0.000000  0.000000 )  
               b(2) = (  0.000000  1.000000  0.000000 )  
               b(3) = (  0.000000  0.000000  1.000000 )  


     PseudoPot. # 1 for Pd read from file:
     /rds/homes/b/bxp912/pp/Pd.pbe-spn-kjpaw_psl.1.0.0.UPF
     MD5 check sum: 790f2ebce206edfd9790dcb9844eca51
     Pseudo is Projector augmented-wave + core cor, Zval = 18.0
     Generated using "atomic" code by A. Dal Corso v.6.3
     Shape of augmentation charge: PSQ
     Using radial grid of 1235 points,  6 beta functions with: 
                l(1) =   0
                l(2) =   0
                l(3) =   1
                l(4) =   1
                l(5) =   2
                l(6) =   2
     Q(r) pseudized with 0 coefficients 


     atomic species   valence    mass     pseudopotential
        Pd            18.00   106.42000     Pd( 1.00)

     No symmetry found



   Cartesian axes

     site n.     atom                  positions (alat units)
         1           Pd  tau(   1) = (  -0.0000679   0.0000198   0.0001413  )
         2           Pd  tau(   2) = (   0.5001653   0.4996054   0.0001461  )
         3           Pd  tau(   3) = (   0.4998071   0.0000633   0.5006138  )
         4           Pd  tau(   4) = (  -0.0000415   0.5004543   0.5003815  )

     number of k points=   108  Marzari-Vanderbilt smearing, width (Ry)=  0.0300

     Number of k-points >= 100: set verbosity='high' to print them.

     Dense  grid:    66299 G-vectors     FFT dimensions: (  54,  54,  54)

     Smooth grid:    31967 G-vectors     FFT dimensions: (  40,  40,  40)

     Estimated max dynamical RAM per process >      28.87 MB

     Estimated total dynamical RAM >     577.44 MB

     Check: negative/imaginary core charge=   -0.000002    0.000000

     Initial potential from superposition of free atoms

     starting charge   71.99847, renormalised to   72.00000
     Starting wfcs are   40 randomized atomic wfcs +    3 random wfcs
     Checking if some PAW data can be deallocated... 

     total cpu time spent up to now is        2.0 secs

     Self-consistent Calculation

     iteration #  1     ecut=    71.00 Ry     beta= 0.10
     Davidson diagonalization with overlap
     ethr =  1.00E-02,  avg # of iterations =  3.0

     Threshold (ethr) on eigenvalues was too large:
     Diagonalizing with lowered threshold

     Davidson diagonalization with overlap
     ethr =  6.86E-05,  avg # of iterations =  2.9

     total cpu time spent up to now is        9.9 secs

     total energy              =   -2048.12357104 Ry
     Harris-Foulkes estimate   =   -2048.13032494 Ry
     estimated scf accuracy    <       0.04816601 Ry

     iteration #  2     ecut=    71.00 Ry     beta= 0.10
     Davidson diagonalization with overlap
     ethr =  6.69E-05,  avg # of iterations =  1.0

     total cpu time spent up to now is       12.5 secs

     total energy              =   -2048.11383455 Ry
     Harris-Foulkes estimate   =   -2048.12431809 Ry
     estimated scf accuracy    <       0.02675225 Ry

     iteration #  3     ecut=    71.00 Ry     beta= 0.10
     Davidson diagonalization with overlap
     ethr =  3.72E-05,  avg # of iterations =  2.0

     total cpu time spent up to now is       15.9 secs

     total energy              =   -2048.11747889 Ry
     Harris-Foulkes estimate   =   -2048.11772422 Ry
     estimated scf accuracy    <       0.00266225 Ry

     iteration #  4     ecut=    71.00 Ry     beta= 0.10
     Davidson diagonalization with overlap
     ethr =  3.70E-06,  avg # of iterations =  1.1

     total cpu time spent up to now is       18.5 secs

     total energy              =   -2048.11677319 Ry
     Harris-Foulkes estimate   =   -2048.11750345 Ry
     estimated scf accuracy    <       0.00193479 Ry

     iteration #  5     ecut=    71.00 Ry     beta= 0.10
     Davidson diagonalization with overlap
     ethr =  2.69E-06,  avg # of iterations =  2.0

     total cpu time spent up to now is       21.6 secs

     total energy              =   -2048.11690708 Ry
     Harris-Foulkes estimate   =   -2048.11691281 Ry
     estimated scf accuracy    <       0.00001891 Ry

     iteration #  6     ecut=    71.00 Ry     beta= 0.10
     Davidson diagonalization with overlap
     ethr =  2.63E-08,  avg # of iterations =  3.0

     total cpu time spent up to now is       26.2 secs

     total energy              =   -2048.11691307 Ry
     Harris-Foulkes estimate   =   -2048.11691395 Ry
     estimated scf accuracy    <       0.00000976 Ry

     iteration #  7     ecut=    71.00 Ry     beta= 0.10
     Davidson diagonalization with overlap
     ethr =  1.35E-08,  avg # of iterations =  1.0

     total cpu time spent up to now is       28.8 secs

     total energy              =   -2048.11691029 Ry
     Harris-Foulkes estimate   =   -2048.11691351 Ry
     estimated scf accuracy    <       0.00000837 Ry

     iteration #  8     ecut=    71.00 Ry     beta= 0.10
     Davidson diagonalization with overlap
     ethr =  1.16E-08,  avg # of iterations =  2.4

     total cpu time spent up to now is       32.4 secs

     End of self-consistent calculation

     Number of k-points >= 100: set verbosity='high' to print the bands.

     the Fermi energy is    19.9720 ev

!    total energy              =   -2048.11691283 Ry
     Harris-Foulkes estimate   =   -2048.11691146 Ry
     estimated scf accuracy    <       0.00000052 Ry

     total all-electron energy =    -40368.223626 Ry

     The total energy is the sum of the following terms:

     one-electron contribution =    -299.05441124 Ry
     hartree contribution      =     203.46286632 Ry
     xc contribution           =    -123.39151815 Ry
     ewald contribution        =    -808.20155572 Ry
     one-center paw contrib.   =   -1020.93262882 Ry
     smearing contrib. (-TS)   =       0.00033477 Ry

     convergence has been achieved in   8 iterations

     Forces acting on atoms (cartesian axes, Ry/au):

     atom    1 type  1   force =     0.00013999    0.00004001    0.00055308
     atom    2 type  1   force =    -0.00041603    0.00077014    0.00050127
     atom    3 type  1   force =     0.00023307   -0.00011123   -0.00069089
     atom    4 type  1   force =     0.00004296   -0.00069891   -0.00036345

     Total force =     0.001585     Total SCF correction =     0.000637
     SCF correction compared to forces is large: reduce conv_thr to get better values


     Computing stress (Cartesian axis) and pressure

          total   stress  (Ry/bohr**3)                   (kbar)     P=   52.75
   0.00035834   0.00000044   0.00000007         52.71      0.06      0.01
   0.00000044   0.00035897   0.00000070          0.06     52.81      0.10
   0.00000007   0.00000070   0.00035852          0.01      0.10     52.74


     Writing output data file pd_fcc_1.save/
 
     init_run     :      1.00s CPU      1.11s WALL (       1 calls)
     electrons    :     29.28s CPU     30.49s WALL (       1 calls)
     forces       :      0.26s CPU      0.27s WALL (       1 calls)
     stress       :      0.51s CPU      0.52s WALL (       1 calls)

     Called by init_run:
     wfcinit      :      0.82s CPU      0.88s WALL (       1 calls)
     potinit      :      0.09s CPU      0.09s WALL (       1 calls)
     hinit0       :      0.07s CPU      0.08s WALL (       1 calls)

     Called by electrons:
     c_bands      :     25.23s CPU     26.14s WALL (       9 calls)
     sum_band     :      3.47s CPU      3.69s WALL (       9 calls)
     v_of_rho     :      0.05s CPU      0.06s WALL (       9 calls)
     newd         :      0.09s CPU      0.12s WALL (       9 calls)
     PAW_pot      :      0.48s CPU      0.52s WALL (       9 calls)
     mix_rho      :      0.01s CPU      0.01s WALL (       9 calls)

     Called by c_bands:
     init_us_2    :      0.24s CPU      0.25s WALL (    2268 calls)
     cegterg      :     24.03s CPU     24.90s WALL (     972 calls)

     Called by sum_band:
     sum_band:bec :      0.03s CPU      0.03s WALL (     972 calls)
     addusdens    :      0.09s CPU      0.12s WALL (       9 calls)

     Called by *egterg:
     h_psi        :     13.86s CPU     14.70s WALL (    3061 calls)
     s_psi        :      0.36s CPU      0.38s WALL (    3061 calls)
     g_psi        :      0.10s CPU      0.10s WALL (    1981 calls)
     cdiaghg      :      7.71s CPU      7.74s WALL (    2845 calls)

     Called by h_psi:
     h_psi:pot    :     13.76s CPU     14.60s WALL (    3061 calls)
     h_psi:calbec :      0.92s CPU      0.97s WALL (    3061 calls)
     vloc_psi     :     12.44s CPU     13.22s WALL (    3061 calls)
     add_vuspsi   :      0.38s CPU      0.39s WALL (    3061 calls)

     General routines
     calbec       :      1.40s CPU      1.47s WALL (    4573 calls)
     fft          :      0.08s CPU      0.08s WALL (     142 calls)
     ffts         :      0.01s CPU      0.01s WALL (      18 calls)
     fftw         :     14.21s CPU     15.09s WALL (  240878 calls)
     interpolate  :      0.01s CPU      0.01s WALL (       9 calls)
 
     Parallel routines
     fft_scatt_xy :      1.18s CPU      1.26s WALL (  241038 calls)
     fft_scatt_yz :      8.70s CPU      9.29s WALL (  241038 calls)
 
     PWSCF        :    32.61s CPU        34.23s WALL

 
   This run was terminated on:  18:50:56  31Mar2020            

=------------------------------------------------------------------------------=
   JOB DONE.
=------------------------------------------------------------------------------=
