
     Program PWSCF v.6.3 starts on 31Mar2020 at 18:52: 7 

     This program is part of the open-source Quantum ESPRESSO suite
     for quantum simulation of materials; please cite
         "P. Giannozzi et al., J. Phys.:Condens. Matter 21 395502 (2009);
         "P. Giannozzi et al., J. Phys.:Condens. Matter 29 465901 (2017);
          URL http://www.quantum-espresso.org", 
     in publications or presentations arising from this work. More details at
     http://www.quantum-espresso.org/quote

     Parallel version (MPI & OpenMP), running on      20 processor cores
     Number of MPI processes:                20
     Threads/MPI process:                     1

     MPI processes distributed on     1 nodes
     R & G space division:  proc/nbgrp/npool/nimage =      20
     Reading input from wd/kpoints/file_000257.in
Warning: card &IONS ignored
Warning: card ION_DYNAMICS = 'BFGS', ignored
Warning: card / ignored
Warning: card &CELL ignored
Warning: card CELL_DYNAMICS = 'BFGS', ignored
Warning: card CELL_FACTOR = 2.0, ignored
Warning: card PRESS = 0.0, ignored
Warning: card / ignored

     Current dimensions of program PWSCF are:
     Max number of different atomic species (ntypx) = 10
     Max number of k-points (npk) =  40000
     Max angular momentum in pseudopotentials (lmaxx) =  3
               file Pd.pbe-spn-kjpaw_psl.1.0.0.UPF: wavefunction(s)  4S 5S 4D renormalized

     Subspace diagonalization in iterative solution of the eigenvalue problem:
     a serial algorithm will be used

 
     Parallelization info
     --------------------
     sticks:   dense  smooth     PW     G-vecs:    dense   smooth      PW
     Min          99      60     17                 3314     1597     257
     Max         101      62     18                 3315     1603     262
     Sum        1993    1217    357                66299    31967    5185
 


     bravais-lattice index     =            0
     lattice parameter (alat)  =       7.3521  a.u.
     unit-cell volume          =     397.4058 (a.u.)^3
     number of atoms/cell      =            4
     number of atomic types    =            1
     number of electrons       =        72.00
     number of Kohn-Sham states=           43
     kinetic-energy cutoff     =      71.0000  Ry
     charge density cutoff     =     460.0000  Ry
     convergence threshold     =      1.0E-06
     mixing beta               =       0.1000
     number of iterations used =           10  plain     mixing
     Exchange-correlation      = SLA PW PBX PBC ( 1  4  3  4 0 0)

     celldm(1)=   7.352100  celldm(2)=   0.000000  celldm(3)=   0.000000
     celldm(4)=   0.000000  celldm(5)=   0.000000  celldm(6)=   0.000000

     crystal axes: (cart. coord. in units of alat)
               a(1) = (   1.000000   0.000000   0.000000 )  
               a(2) = (   0.000000   1.000000   0.000000 )  
               a(3) = (   0.000000   0.000000   1.000000 )  

     reciprocal axes: (cart. coord. in units 2 pi/alat)
               b(1) = (  1.000000  0.000000  0.000000 )  
               b(2) = (  0.000000  1.000000  0.000000 )  
               b(3) = (  0.000000  0.000000  1.000000 )  


     PseudoPot. # 1 for Pd read from file:
     /rds/homes/b/bxp912/pp/Pd.pbe-spn-kjpaw_psl.1.0.0.UPF
     MD5 check sum: 790f2ebce206edfd9790dcb9844eca51
     Pseudo is Projector augmented-wave + core cor, Zval = 18.0
     Generated using "atomic" code by A. Dal Corso v.6.3
     Shape of augmentation charge: PSQ
     Using radial grid of 1235 points,  6 beta functions with: 
                l(1) =   0
                l(2) =   0
                l(3) =   1
                l(4) =   1
                l(5) =   2
                l(6) =   2
     Q(r) pseudized with 0 coefficients 


     atomic species   valence    mass     pseudopotential
        Pd            18.00   106.42000     Pd( 1.00)

     No symmetry found



   Cartesian axes

     site n.     atom                  positions (alat units)
         1           Pd  tau(   1) = (  -0.0000679   0.0000198   0.0001413  )
         2           Pd  tau(   2) = (   0.5001653   0.4996054   0.0001461  )
         3           Pd  tau(   3) = (   0.4998071   0.0000633   0.5006138  )
         4           Pd  tau(   4) = (  -0.0000415   0.5004543   0.5003815  )

     number of k points=   172  Marzari-Vanderbilt smearing, width (Ry)=  0.0100

     Number of k-points >= 100: set verbosity='high' to print them.

     Dense  grid:    66299 G-vectors     FFT dimensions: (  54,  54,  54)

     Smooth grid:    31967 G-vectors     FFT dimensions: (  40,  40,  40)

     Estimated max dynamical RAM per process >      37.27 MB

     Estimated total dynamical RAM >     745.41 MB

     Check: negative/imaginary core charge=   -0.000002    0.000000

     Initial potential from superposition of free atoms

     starting charge   71.99847, renormalised to   72.00000
     Starting wfcs are   40 randomized atomic wfcs +    3 random wfcs
     Checking if some PAW data can be deallocated... 

     total cpu time spent up to now is        2.5 secs

     Self-consistent Calculation

     iteration #  1     ecut=    71.00 Ry     beta= 0.10
     Davidson diagonalization with overlap
     ethr =  1.00E-02,  avg # of iterations =  3.0

     Threshold (ethr) on eigenvalues was too large:
     Diagonalizing with lowered threshold

     Davidson diagonalization with overlap
     ethr =  7.75E-05,  avg # of iterations =  2.6

     total cpu time spent up to now is       14.3 secs

     total energy              =   -2048.12090540 Ry
     Harris-Foulkes estimate   =   -2048.12866525 Ry
     estimated scf accuracy    <       0.05440490 Ry

     iteration #  2     ecut=    71.00 Ry     beta= 0.10
     Davidson diagonalization with overlap
     ethr =  7.56E-05,  avg # of iterations =  1.0

     total cpu time spent up to now is       18.4 secs

     total energy              =   -2048.11018347 Ry
     Harris-Foulkes estimate   =   -2048.12178599 Ry
     estimated scf accuracy    <       0.02962196 Ry

     iteration #  3     ecut=    71.00 Ry     beta= 0.10
     Davidson diagonalization with overlap
     ethr =  4.11E-05,  avg # of iterations =  2.0

     total cpu time spent up to now is       24.0 secs

     total energy              =   -2048.11423877 Ry
     Harris-Foulkes estimate   =   -2048.11448428 Ry
     estimated scf accuracy    <       0.00276689 Ry

     iteration #  4     ecut=    71.00 Ry     beta= 0.10
     Davidson diagonalization with overlap
     ethr =  3.84E-06,  avg # of iterations =  1.3

     total cpu time spent up to now is       28.4 secs

     total energy              =   -2048.11345428 Ry
     Harris-Foulkes estimate   =   -2048.11427321 Ry
     estimated scf accuracy    <       0.00206696 Ry

     iteration #  5     ecut=    71.00 Ry     beta= 0.10
     Davidson diagonalization with overlap
     ethr =  2.87E-06,  avg # of iterations =  2.0

     total cpu time spent up to now is       33.3 secs

     total energy              =   -2048.11361097 Ry
     Harris-Foulkes estimate   =   -2048.11362277 Ry
     estimated scf accuracy    <       0.00003004 Ry

     iteration #  6     ecut=    71.00 Ry     beta= 0.10
     Davidson diagonalization with overlap
     ethr =  4.17E-08,  avg # of iterations =  2.5

     total cpu time spent up to now is       39.5 secs

     total energy              =   -2048.11361626 Ry
     Harris-Foulkes estimate   =   -2048.11361771 Ry
     estimated scf accuracy    <       0.00001144 Ry

     iteration #  7     ecut=    71.00 Ry     beta= 0.10
     Davidson diagonalization with overlap
     ethr =  1.59E-08,  avg # of iterations =  1.0

     total cpu time spent up to now is       43.6 secs

     total energy              =   -2048.11361271 Ry
     Harris-Foulkes estimate   =   -2048.11361673 Ry
     estimated scf accuracy    <       0.00000828 Ry

     iteration #  8     ecut=    71.00 Ry     beta= 0.10
     Davidson diagonalization with overlap
     ethr =  1.15E-08,  avg # of iterations =  2.2

     total cpu time spent up to now is       49.1 secs

     End of self-consistent calculation

     Number of k-points >= 100: set verbosity='high' to print the bands.

     the Fermi energy is    19.9509 ev

!    total energy              =   -2048.11361547 Ry
     Harris-Foulkes estimate   =   -2048.11361389 Ry
     estimated scf accuracy    <       0.00000034 Ry

     total all-electron energy =    -40368.220329 Ry

     The total energy is the sum of the following terms:

     one-electron contribution =    -299.15926794 Ry
     hartree contribution      =     203.58844846 Ry
     xc contribution           =    -123.40994944 Ry
     ewald contribution        =    -808.20155572 Ry
     one-center paw contrib.   =   -1020.93142219 Ry
     smearing contrib. (-TS)   =       0.00013136 Ry

     convergence has been achieved in   8 iterations

     Forces acting on atoms (cartesian axes, Ry/au):

     atom    1 type  1   force =     0.00013651    0.00004543    0.00051299
     atom    2 type  1   force =    -0.00036891    0.00067596    0.00045493
     atom    3 type  1   force =     0.00020012   -0.00010045   -0.00063393
     atom    4 type  1   force =     0.00003228   -0.00062094   -0.00033399

     Total force =     0.001426     Total SCF correction =     0.000576
     SCF correction compared to forces is large: reduce conv_thr to get better values


     Computing stress (Cartesian axis) and pressure

          total   stress  (Ry/bohr**3)                   (kbar)     P=   58.69
   0.00039899   0.00000062   0.00000036         58.69      0.09      0.05
   0.00000062   0.00039915   0.00000071          0.09     58.72      0.10
   0.00000036   0.00000071   0.00039875          0.05      0.10     58.66


     Writing output data file pd_fcc_1.save/
 
     init_run     :      1.46s CPU      1.58s WALL (       1 calls)
     electrons    :     44.86s CPU     46.67s WALL (       1 calls)
     forces       :      0.39s CPU      0.40s WALL (       1 calls)
     stress       :      0.74s CPU      0.75s WALL (       1 calls)

     Called by init_run:
     wfcinit      :      1.26s CPU      1.35s WALL (       1 calls)
     potinit      :      0.08s CPU      0.09s WALL (       1 calls)
     hinit0       :      0.08s CPU      0.09s WALL (       1 calls)

     Called by electrons:
     c_bands      :     39.01s CPU     40.45s WALL (       9 calls)
     sum_band     :      5.28s CPU      5.58s WALL (       9 calls)
     v_of_rho     :      0.05s CPU      0.06s WALL (       9 calls)
     newd         :      0.09s CPU      0.12s WALL (       9 calls)
     PAW_pot      :      0.49s CPU      0.52s WALL (       9 calls)
     mix_rho      :      0.01s CPU      0.01s WALL (       9 calls)

     Called by c_bands:
     init_us_2    :      0.38s CPU      0.40s WALL (    3612 calls)
     cegterg      :     37.12s CPU     38.51s WALL (    1548 calls)

     Called by sum_band:
     sum_band:bec :      0.05s CPU      0.05s WALL (    1548 calls)
     addusdens    :      0.09s CPU      0.12s WALL (       9 calls)

     Called by *egterg:
     h_psi        :     22.01s CPU     23.35s WALL (    4741 calls)
     s_psi        :      0.56s CPU      0.58s WALL (    4741 calls)
     g_psi        :      0.15s CPU      0.15s WALL (    3021 calls)
     cdiaghg      :     11.37s CPU     11.42s WALL (    4397 calls)

     Called by h_psi:
     h_psi:pot    :     21.87s CPU     23.21s WALL (    4741 calls)
     h_psi:calbec :      1.35s CPU      1.43s WALL (    4741 calls)
     vloc_psi     :     19.91s CPU     21.14s WALL (    4741 calls)
     add_vuspsi   :      0.58s CPU      0.61s WALL (    4741 calls)

     General routines
     calbec       :      2.07s CPU      2.17s WALL (    7149 calls)
     fft          :      0.07s CPU      0.08s WALL (     142 calls)
     ffts         :      0.01s CPU      0.01s WALL (      18 calls)
     fftw         :     22.62s CPU     23.99s WALL (  379742 calls)
     interpolate  :      0.01s CPU      0.01s WALL (       9 calls)
 
     Parallel routines
     fft_scatt_xy :      1.87s CPU      1.99s WALL (  379902 calls)
     fft_scatt_yz :     13.87s CPU     14.78s WALL (  379902 calls)
 
     PWSCF        :    49.84s CPU        52.61s WALL

 
   This run was terminated on:  18:52:59  31Mar2020            

=------------------------------------------------------------------------------=
   JOB DONE.
=------------------------------------------------------------------------------=
