
     Program PWSCF v.6.3 starts on  1Apr2020 at  3:56:52 

     This program is part of the open-source Quantum ESPRESSO suite
     for quantum simulation of materials; please cite
         "P. Giannozzi et al., J. Phys.:Condens. Matter 21 395502 (2009);
         "P. Giannozzi et al., J. Phys.:Condens. Matter 29 465901 (2017);
          URL http://www.quantum-espresso.org", 
     in publications or presentations arising from this work. More details at
     http://www.quantum-espresso.org/quote

     Parallel version (MPI & OpenMP), running on      20 processor cores
     Number of MPI processes:                20
     Threads/MPI process:                     1

     MPI processes distributed on     1 nodes
     R & G space division:  proc/nbgrp/npool/nimage =      20
     Reading input from wd/kpoints/file_000268.in
Warning: card &IONS ignored
Warning: card ION_DYNAMICS = 'BFGS', ignored
Warning: card / ignored
Warning: card &CELL ignored
Warning: card CELL_DYNAMICS = 'BFGS', ignored
Warning: card CELL_FACTOR = 2.0, ignored
Warning: card PRESS = 0.0, ignored
Warning: card / ignored

     Current dimensions of program PWSCF are:
     Max number of different atomic species (ntypx) = 10
     Max number of k-points (npk) =  40000
     Max angular momentum in pseudopotentials (lmaxx) =  3
               file Pd.pbe-spn-kjpaw_psl.1.0.0.UPF: wavefunction(s)  4S 5S 4D renormalized

     Subspace diagonalization in iterative solution of the eigenvalue problem:
     a serial algorithm will be used

 
     Parallelization info
     --------------------
     sticks:   dense  smooth     PW     G-vecs:    dense   smooth      PW
     Min          99      60     17                 3314     1597     257
     Max         101      62     18                 3315     1603     262
     Sum        1993    1217    357                66299    31967    5185
 


     bravais-lattice index     =            0
     lattice parameter (alat)  =       7.3521  a.u.
     unit-cell volume          =     397.4058 (a.u.)^3
     number of atoms/cell      =            4
     number of atomic types    =            1
     number of electrons       =        72.00
     number of Kohn-Sham states=           43
     kinetic-energy cutoff     =      71.0000  Ry
     charge density cutoff     =     460.0000  Ry
     convergence threshold     =      1.0E-06
     mixing beta               =       0.1000
     number of iterations used =           10  plain     mixing
     Exchange-correlation      = SLA PW PBX PBC ( 1  4  3  4 0 0)

     celldm(1)=   7.352100  celldm(2)=   0.000000  celldm(3)=   0.000000
     celldm(4)=   0.000000  celldm(5)=   0.000000  celldm(6)=   0.000000

     crystal axes: (cart. coord. in units of alat)
               a(1) = (   1.000000   0.000000   0.000000 )  
               a(2) = (   0.000000   1.000000   0.000000 )  
               a(3) = (   0.000000   0.000000   1.000000 )  

     reciprocal axes: (cart. coord. in units 2 pi/alat)
               b(1) = (  1.000000  0.000000  0.000000 )  
               b(2) = (  0.000000  1.000000  0.000000 )  
               b(3) = (  0.000000  0.000000  1.000000 )  


     PseudoPot. # 1 for Pd read from file:
     /rds/homes/b/bxp912/pp/Pd.pbe-spn-kjpaw_psl.1.0.0.UPF
     MD5 check sum: 790f2ebce206edfd9790dcb9844eca51
     Pseudo is Projector augmented-wave + core cor, Zval = 18.0
     Generated using "atomic" code by A. Dal Corso v.6.3
     Shape of augmentation charge: PSQ
     Using radial grid of 1235 points,  6 beta functions with: 
                l(1) =   0
                l(2) =   0
                l(3) =   1
                l(4) =   1
                l(5) =   2
                l(6) =   2
     Q(r) pseudized with 0 coefficients 


     atomic species   valence    mass     pseudopotential
        Pd            18.00   106.42000     Pd( 1.00)

     No symmetry found



   Cartesian axes

     site n.     atom                  positions (alat units)
         1           Pd  tau(   1) = (  -0.0000679   0.0000198   0.0001413  )
         2           Pd  tau(   2) = (   0.5001653   0.4996054   0.0001461  )
         3           Pd  tau(   3) = (   0.4998071   0.0000633   0.5006138  )
         4           Pd  tau(   4) = (  -0.0000415   0.5004543   0.5003815  )

     number of k points=   365  Marzari-Vanderbilt smearing, width (Ry)=  0.0200

     Number of k-points >= 100: set verbosity='high' to print them.

     Dense  grid:    66299 G-vectors     FFT dimensions: (  54,  54,  54)

     Smooth grid:    31967 G-vectors     FFT dimensions: (  40,  40,  40)

     Estimated max dynamical RAM per process >      62.60 MB

     Estimated total dynamical RAM >       1.22 GB

     Check: negative/imaginary core charge=   -0.000002    0.000000

     Initial potential from superposition of free atoms

     starting charge   71.99847, renormalised to   72.00000
     Starting wfcs are   40 randomized atomic wfcs +    3 random wfcs
     Checking if some PAW data can be deallocated... 

     total cpu time spent up to now is        4.0 secs

     Self-consistent Calculation

     iteration #  1     ecut=    71.00 Ry     beta= 0.10
     Davidson diagonalization with overlap
     ethr =  1.00E-02,  avg # of iterations =  3.0

     Threshold (ethr) on eigenvalues was too large:
     Diagonalizing with lowered threshold

     Davidson diagonalization with overlap
     ethr =  7.01E-05,  avg # of iterations =  2.8

     total cpu time spent up to now is       28.3 secs

     total energy              =   -2048.12453433 Ry
     Harris-Foulkes estimate   =   -2048.13143055 Ry
     estimated scf accuracy    <       0.04914153 Ry

     iteration #  2     ecut=    71.00 Ry     beta= 0.10
     Davidson diagonalization with overlap
     ethr =  6.83E-05,  avg # of iterations =  1.0

     total cpu time spent up to now is       36.8 secs

     total energy              =   -2048.11445962 Ry
     Harris-Foulkes estimate   =   -2048.12528858 Ry
     estimated scf accuracy    <       0.02755260 Ry

     iteration #  3     ecut=    71.00 Ry     beta= 0.10
     Davidson diagonalization with overlap
     ethr =  3.83E-05,  avg # of iterations =  2.0

     total cpu time spent up to now is       47.6 secs

     total energy              =   -2048.11806620 Ry
     Harris-Foulkes estimate   =   -2048.11833360 Ry
     estimated scf accuracy    <       0.00281316 Ry

     iteration #  4     ecut=    71.00 Ry     beta= 0.10
     Davidson diagonalization with overlap
     ethr =  3.91E-06,  avg # of iterations =  1.3

     total cpu time spent up to now is       56.4 secs

     total energy              =   -2048.11732590 Ry
     Harris-Foulkes estimate   =   -2048.11810399 Ry
     estimated scf accuracy    <       0.00202795 Ry

     iteration #  5     ecut=    71.00 Ry     beta= 0.10
     Davidson diagonalization with overlap
     ethr =  2.82E-06,  avg # of iterations =  2.0

     total cpu time spent up to now is       66.2 secs

     total energy              =   -2048.11746791 Ry
     Harris-Foulkes estimate   =   -2048.11747649 Ry
     estimated scf accuracy    <       0.00002470 Ry

     iteration #  6     ecut=    71.00 Ry     beta= 0.10
     Davidson diagonalization with overlap
     ethr =  3.43E-08,  avg # of iterations =  2.8

     total cpu time spent up to now is       80.3 secs

     total energy              =   -2048.11747365 Ry
     Harris-Foulkes estimate   =   -2048.11747461 Ry
     estimated scf accuracy    <       0.00000968 Ry

     iteration #  7     ecut=    71.00 Ry     beta= 0.10
     Davidson diagonalization with overlap
     ethr =  1.34E-08,  avg # of iterations =  1.0

     total cpu time spent up to now is       88.7 secs

     total energy              =   -2048.11747074 Ry
     Harris-Foulkes estimate   =   -2048.11747401 Ry
     estimated scf accuracy    <       0.00000800 Ry

     iteration #  8     ecut=    71.00 Ry     beta= 0.10
     Davidson diagonalization with overlap
     ethr =  1.11E-08,  avg # of iterations =  2.1

     total cpu time spent up to now is       99.9 secs

     End of self-consistent calculation

     Number of k-points >= 100: set verbosity='high' to print the bands.

     the Fermi energy is    19.9748 ev

!    total energy              =   -2048.11747330 Ry
     Harris-Foulkes estimate   =   -2048.11747175 Ry
     estimated scf accuracy    <       0.00000032 Ry

     total all-electron energy =    -40368.224187 Ry

     The total energy is the sum of the following terms:

     one-electron contribution =    -299.12237349 Ry
     hartree contribution      =     203.54128271 Ry
     xc contribution           =    -123.40327070 Ry
     ewald contribution        =    -808.20155572 Ry
     one-center paw contrib.   =   -1020.93182317 Ry
     smearing contrib. (-TS)   =       0.00026708 Ry

     convergence has been achieved in   8 iterations

     Forces acting on atoms (cartesian axes, Ry/au):

     atom    1 type  1   force =     0.00013932    0.00003689    0.00055839
     atom    2 type  1   force =    -0.00041638    0.00077043    0.00050477
     atom    3 type  1   force =     0.00023350   -0.00010839   -0.00070197
     atom    4 type  1   force =     0.00004355   -0.00069893   -0.00036119

     Total force =     0.001592     Total SCF correction =     0.000509
     SCF correction compared to forces is large: reduce conv_thr to get better values


     Computing stress (Cartesian axis) and pressure

          total   stress  (Ry/bohr**3)                   (kbar)     P=   55.21
   0.00037508   0.00000042   0.00000011         55.18      0.06      0.02
   0.00000042   0.00037568   0.00000058          0.06     55.27      0.09
   0.00000011   0.00000058   0.00037525          0.02      0.09     55.20


     Writing output data file pd_fcc_1.save/
 
     init_run     :      2.89s CPU      3.11s WALL (       1 calls)
     electrons    :     92.02s CPU     95.84s WALL (       1 calls)
     forces       :      0.77s CPU      0.78s WALL (       1 calls)
     stress       :      1.50s CPU      1.51s WALL (       1 calls)

     Called by init_run:
     wfcinit      :      2.71s CPU      2.87s WALL (       1 calls)
     potinit      :      0.08s CPU      0.09s WALL (       1 calls)
     hinit0       :      0.08s CPU      0.08s WALL (       1 calls)

     Called by electrons:
     c_bands      :     80.94s CPU     84.02s WALL (       9 calls)
     sum_band     :     10.48s CPU     11.16s WALL (       9 calls)
     v_of_rho     :      0.05s CPU      0.06s WALL (       9 calls)
     newd         :      0.09s CPU      0.12s WALL (       9 calls)
     PAW_pot      :      0.48s CPU      0.51s WALL (       9 calls)
     mix_rho      :      0.01s CPU      0.01s WALL (       9 calls)

     Called by c_bands:
     init_us_2    :      0.71s CPU      0.74s WALL (    7665 calls)
     cegterg      :     77.07s CPU     80.01s WALL (    3285 calls)

     Called by sum_band:
     sum_band:bec :      0.09s CPU      0.10s WALL (    3285 calls)
     addusdens    :      0.08s CPU      0.12s WALL (       9 calls)

     Called by *egterg:
     h_psi        :     45.09s CPU     47.89s WALL (   10223 calls)
     s_psi        :      1.18s CPU      1.24s WALL (   10223 calls)
     g_psi        :      0.32s CPU      0.32s WALL (    6573 calls)
     cdiaghg      :     24.82s CPU     24.95s WALL (    9493 calls)

     Called by h_psi:
     h_psi:pot    :     44.80s CPU     47.59s WALL (   10223 calls)
     h_psi:calbec :      2.48s CPU      2.63s WALL (   10223 calls)
     vloc_psi     :     41.04s CPU     43.62s WALL (   10223 calls)
     add_vuspsi   :      1.21s CPU      1.27s WALL (   10223 calls)

     General routines
     calbec       :      3.87s CPU      4.08s WALL (   15333 calls)
     fft          :      0.06s CPU      0.07s WALL (     142 calls)
     ffts         :      0.00s CPU      0.01s WALL (      18 calls)
     fftw         :     46.24s CPU     49.13s WALL (  810637 calls)
     interpolate  :      0.01s CPU      0.01s WALL (       9 calls)
 
     Parallel routines
     fft_scatt_xy :      3.87s CPU      4.11s WALL (  810797 calls)
     fft_scatt_yz :     27.48s CPU     29.39s WALL (  810797 calls)
 
     PWSCF        :  1m40.40s CPU     1m45.25s WALL

 
   This run was terminated on:   3:58:37   1Apr2020            

=------------------------------------------------------------------------------=
   JOB DONE.
=------------------------------------------------------------------------------=
