
     Program PWSCF v.6.3 starts on 31Mar2020 at 18:55:40 

     This program is part of the open-source Quantum ESPRESSO suite
     for quantum simulation of materials; please cite
         "P. Giannozzi et al., J. Phys.:Condens. Matter 21 395502 (2009);
         "P. Giannozzi et al., J. Phys.:Condens. Matter 29 465901 (2017);
          URL http://www.quantum-espresso.org", 
     in publications or presentations arising from this work. More details at
     http://www.quantum-espresso.org/quote

     Parallel version (MPI & OpenMP), running on      20 processor cores
     Number of MPI processes:                20
     Threads/MPI process:                     1

     MPI processes distributed on     1 nodes
     R & G space division:  proc/nbgrp/npool/nimage =      20
     Reading input from wd/kpoints/file_000261.in
Warning: card &IONS ignored
Warning: card ION_DYNAMICS = 'BFGS', ignored
Warning: card / ignored
Warning: card &CELL ignored
Warning: card CELL_DYNAMICS = 'BFGS', ignored
Warning: card CELL_FACTOR = 2.0, ignored
Warning: card PRESS = 0.0, ignored
Warning: card / ignored

     Current dimensions of program PWSCF are:
     Max number of different atomic species (ntypx) = 10
     Max number of k-points (npk) =  40000
     Max angular momentum in pseudopotentials (lmaxx) =  3
               file Pd.pbe-spn-kjpaw_psl.1.0.0.UPF: wavefunction(s)  4S 5S 4D renormalized

     Subspace diagonalization in iterative solution of the eigenvalue problem:
     a serial algorithm will be used

 
     Parallelization info
     --------------------
     sticks:   dense  smooth     PW     G-vecs:    dense   smooth      PW
     Min          99      60     17                 3314     1597     257
     Max         101      62     18                 3315     1603     262
     Sum        1993    1217    357                66299    31967    5185
 


     bravais-lattice index     =            0
     lattice parameter (alat)  =       7.3521  a.u.
     unit-cell volume          =     397.4058 (a.u.)^3
     number of atoms/cell      =            4
     number of atomic types    =            1
     number of electrons       =        72.00
     number of Kohn-Sham states=           43
     kinetic-energy cutoff     =      71.0000  Ry
     charge density cutoff     =     460.0000  Ry
     convergence threshold     =      1.0E-06
     mixing beta               =       0.1000
     number of iterations used =           10  plain     mixing
     Exchange-correlation      = SLA PW PBX PBC ( 1  4  3  4 0 0)

     celldm(1)=   7.352100  celldm(2)=   0.000000  celldm(3)=   0.000000
     celldm(4)=   0.000000  celldm(5)=   0.000000  celldm(6)=   0.000000

     crystal axes: (cart. coord. in units of alat)
               a(1) = (   1.000000   0.000000   0.000000 )  
               a(2) = (   0.000000   1.000000   0.000000 )  
               a(3) = (   0.000000   0.000000   1.000000 )  

     reciprocal axes: (cart. coord. in units 2 pi/alat)
               b(1) = (  1.000000  0.000000  0.000000 )  
               b(2) = (  0.000000  1.000000  0.000000 )  
               b(3) = (  0.000000  0.000000  1.000000 )  


     PseudoPot. # 1 for Pd read from file:
     /rds/homes/b/bxp912/pp/Pd.pbe-spn-kjpaw_psl.1.0.0.UPF
     MD5 check sum: 790f2ebce206edfd9790dcb9844eca51
     Pseudo is Projector augmented-wave + core cor, Zval = 18.0
     Generated using "atomic" code by A. Dal Corso v.6.3
     Shape of augmentation charge: PSQ
     Using radial grid of 1235 points,  6 beta functions with: 
                l(1) =   0
                l(2) =   0
                l(3) =   1
                l(4) =   1
                l(5) =   2
                l(6) =   2
     Q(r) pseudized with 0 coefficients 


     atomic species   valence    mass     pseudopotential
        Pd            18.00   106.42000     Pd( 1.00)

     No symmetry found



   Cartesian axes

     site n.     atom                  positions (alat units)
         1           Pd  tau(   1) = (  -0.0000679   0.0000198   0.0001413  )
         2           Pd  tau(   2) = (   0.5001653   0.4996054   0.0001461  )
         3           Pd  tau(   3) = (   0.4998071   0.0000633   0.5006138  )
         4           Pd  tau(   4) = (  -0.0000415   0.5004543   0.5003815  )

     number of k points=   172  Marzari-Vanderbilt smearing, width (Ry)=  0.0500

     Number of k-points >= 100: set verbosity='high' to print them.

     Dense  grid:    66299 G-vectors     FFT dimensions: (  54,  54,  54)

     Smooth grid:    31967 G-vectors     FFT dimensions: (  40,  40,  40)

     Estimated max dynamical RAM per process >      37.27 MB

     Estimated total dynamical RAM >     745.41 MB

     Check: negative/imaginary core charge=   -0.000002    0.000000

     Initial potential from superposition of free atoms

     starting charge   71.99847, renormalised to   72.00000
     Starting wfcs are   40 randomized atomic wfcs +    3 random wfcs
     Checking if some PAW data can be deallocated... 

     total cpu time spent up to now is        2.5 secs

     Self-consistent Calculation

     iteration #  1     ecut=    71.00 Ry     beta= 0.10
     Davidson diagonalization with overlap
     ethr =  1.00E-02,  avg # of iterations =  3.0

     Threshold (ethr) on eigenvalues was too large:
     Diagonalizing with lowered threshold

     Davidson diagonalization with overlap
     ethr =  6.75E-05,  avg # of iterations =  2.8

     total cpu time spent up to now is       14.5 secs

     total energy              =   -2048.12187852 Ry
     Harris-Foulkes estimate   =   -2048.12848363 Ry
     estimated scf accuracy    <       0.04721661 Ry

     iteration #  2     ecut=    71.00 Ry     beta= 0.10
     Davidson diagonalization with overlap
     ethr =  6.56E-05,  avg # of iterations =  1.0

     total cpu time spent up to now is       19.5 secs

     total energy              =   -2048.11205854 Ry
     Harris-Foulkes estimate   =   -2048.12259156 Ry
     estimated scf accuracy    <       0.02641854 Ry

     iteration #  3     ecut=    71.00 Ry     beta= 0.10
     Davidson diagonalization with overlap
     ethr =  3.67E-05,  avg # of iterations =  2.0

     total cpu time spent up to now is       24.8 secs

     total energy              =   -2048.11570636 Ry
     Harris-Foulkes estimate   =   -2048.11599312 Ry
     estimated scf accuracy    <       0.00264173 Ry

     iteration #  4     ecut=    71.00 Ry     beta= 0.10
     Davidson diagonalization with overlap
     ethr =  3.67E-06,  avg # of iterations =  1.3

     total cpu time spent up to now is       29.1 secs

     total energy              =   -2048.11506076 Ry
     Harris-Foulkes estimate   =   -2048.11572767 Ry
     estimated scf accuracy    <       0.00178915 Ry

     iteration #  5     ecut=    71.00 Ry     beta= 0.10
     Davidson diagonalization with overlap
     ethr =  2.48E-06,  avg # of iterations =  2.0

     total cpu time spent up to now is       33.9 secs

     total energy              =   -2048.11517672 Ry
     Harris-Foulkes estimate   =   -2048.11518129 Ry
     estimated scf accuracy    <       0.00001813 Ry

     iteration #  6     ecut=    71.00 Ry     beta= 0.10
     Davidson diagonalization with overlap
     ethr =  2.52E-08,  avg # of iterations =  3.0

     total cpu time spent up to now is       41.2 secs

     total energy              =   -2048.11518328 Ry
     Harris-Foulkes estimate   =   -2048.11518335 Ry
     estimated scf accuracy    <       0.00000883 Ry

     iteration #  7     ecut=    71.00 Ry     beta= 0.10
     Davidson diagonalization with overlap
     ethr =  1.23E-08,  avg # of iterations =  1.0

     total cpu time spent up to now is       45.3 secs

     total energy              =   -2048.11518064 Ry
     Harris-Foulkes estimate   =   -2048.11518371 Ry
     estimated scf accuracy    <       0.00000942 Ry

     iteration #  8     ecut=    71.00 Ry     beta= 0.10
     Davidson diagonalization with overlap
     ethr =  1.23E-08,  avg # of iterations =  2.1

     total cpu time spent up to now is       51.2 secs

     End of self-consistent calculation

     Number of k-points >= 100: set verbosity='high' to print the bands.

     the Fermi energy is    20.0479 ev

!    total energy              =   -2048.11518306 Ry
     Harris-Foulkes estimate   =   -2048.11518177 Ry
     estimated scf accuracy    <       0.00000058 Ry

     total all-electron energy =    -40368.221896 Ry

     The total energy is the sum of the following terms:

     one-electron contribution =    -299.06708158 Ry
     hartree contribution      =     203.46870744 Ry
     xc contribution           =    -123.39237711 Ry
     ewald contribution        =    -808.20155572 Ry
     one-center paw contrib.   =   -1020.93223639 Ry
     smearing contrib. (-TS)   =       0.00936030 Ry

     convergence has been achieved in   8 iterations

     Forces acting on atoms (cartesian axes, Ry/au):

     atom    1 type  1   force =     0.00014047    0.00003623    0.00054664
     atom    2 type  1   force =    -0.00041619    0.00077036    0.00049850
     atom    3 type  1   force =     0.00023503   -0.00011457   -0.00069105
     atom    4 type  1   force =     0.00004068   -0.00069202   -0.00035409

     Total force =     0.001577     Total SCF correction =     0.000583
     SCF correction compared to forces is large: reduce conv_thr to get better values


     Computing stress (Cartesian axis) and pressure

          total   stress  (Ry/bohr**3)                   (kbar)     P=   48.35
   0.00032826   0.00000040   0.00000007         48.29      0.06      0.01
   0.00000040   0.00032907   0.00000060          0.06     48.41      0.09
   0.00000007   0.00000060   0.00032869          0.01      0.09     48.35


     Writing output data file pd_fcc_1.save/
 
     init_run     :      1.48s CPU      1.61s WALL (       1 calls)
     electrons    :     46.76s CPU     48.73s WALL (       1 calls)
     forces       :      0.40s CPU      0.41s WALL (       1 calls)
     stress       :      0.75s CPU      0.76s WALL (       1 calls)

     Called by init_run:
     wfcinit      :      1.27s CPU      1.34s WALL (       1 calls)
     potinit      :      0.12s CPU      0.13s WALL (       1 calls)
     hinit0       :      0.06s CPU      0.10s WALL (       1 calls)

     Called by electrons:
     c_bands      :     40.87s CPU     42.47s WALL (       9 calls)
     sum_band     :      5.26s CPU      5.58s WALL (       9 calls)
     v_of_rho     :      0.05s CPU      0.06s WALL (       9 calls)
     newd         :      0.10s CPU      0.12s WALL (       9 calls)
     PAW_pot      :      0.50s CPU      0.54s WALL (       9 calls)
     mix_rho      :      0.06s CPU      0.06s WALL (       9 calls)

     Called by c_bands:
     init_us_2    :      0.36s CPU      0.38s WALL (    3612 calls)
     cegterg      :     38.92s CPU     40.43s WALL (    1548 calls)

     Called by sum_band:
     sum_band:bec :      0.05s CPU      0.05s WALL (    1548 calls)
     addusdens    :      0.09s CPU      0.12s WALL (       9 calls)

     Called by *egterg:
     h_psi        :     22.80s CPU     24.21s WALL (    4843 calls)
     s_psi        :      0.56s CPU      0.59s WALL (    4843 calls)
     g_psi        :      0.15s CPU      0.15s WALL (    3123 calls)
     cdiaghg      :     12.13s CPU     12.20s WALL (    4499 calls)

     Called by h_psi:
     h_psi:pot    :     22.65s CPU     24.05s WALL (    4843 calls)
     h_psi:calbec :      1.44s CPU      1.52s WALL (    4843 calls)
     vloc_psi     :     20.60s CPU     21.90s WALL (    4843 calls)
     add_vuspsi   :      0.58s CPU      0.61s WALL (    4843 calls)

     General routines
     calbec       :      2.16s CPU      2.28s WALL (    7251 calls)
     fft          :      0.12s CPU      0.12s WALL (     142 calls)
     ffts         :      0.01s CPU      0.01s WALL (      18 calls)
     fftw         :     23.26s CPU     24.70s WALL (  383530 calls)
     interpolate  :      0.01s CPU      0.01s WALL (       9 calls)
 
     Parallel routines
     fft_scatt_xy :      1.90s CPU      2.02s WALL (  383690 calls)
     fft_scatt_yz :     14.37s CPU     15.32s WALL (  383690 calls)
 
     PWSCF        :    51.37s CPU        53.91s WALL

 
   This run was terminated on:  18:56:34  31Mar2020            

=------------------------------------------------------------------------------=
   JOB DONE.
=------------------------------------------------------------------------------=
