
     Program PWSCF v.6.3 starts on 31Mar2020 at 18:48: 6 

     This program is part of the open-source Quantum ESPRESSO suite
     for quantum simulation of materials; please cite
         "P. Giannozzi et al., J. Phys.:Condens. Matter 21 395502 (2009);
         "P. Giannozzi et al., J. Phys.:Condens. Matter 29 465901 (2017);
          URL http://www.quantum-espresso.org", 
     in publications or presentations arising from this work. More details at
     http://www.quantum-espresso.org/quote

     Parallel version (MPI & OpenMP), running on      20 processor cores
     Number of MPI processes:                20
     Threads/MPI process:                     1

     MPI processes distributed on     1 nodes
     R & G space division:  proc/nbgrp/npool/nimage =      20
     Reading input from wd/kpoints/file_000249.in
Warning: card &IONS ignored
Warning: card ION_DYNAMICS = 'BFGS', ignored
Warning: card / ignored
Warning: card &CELL ignored
Warning: card CELL_DYNAMICS = 'BFGS', ignored
Warning: card CELL_FACTOR = 2.0, ignored
Warning: card PRESS = 0.0, ignored
Warning: card / ignored

     Current dimensions of program PWSCF are:
     Max number of different atomic species (ntypx) = 10
     Max number of k-points (npk) =  40000
     Max angular momentum in pseudopotentials (lmaxx) =  3
               file Pd.pbe-spn-kjpaw_psl.1.0.0.UPF: wavefunction(s)  4S 5S 4D renormalized

     Subspace diagonalization in iterative solution of the eigenvalue problem:
     a serial algorithm will be used

 
     Parallelization info
     --------------------
     sticks:   dense  smooth     PW     G-vecs:    dense   smooth      PW
     Min          99      60     17                 3314     1597     257
     Max         101      62     18                 3315     1603     262
     Sum        1993    1217    357                66299    31967    5185
 


     bravais-lattice index     =            0
     lattice parameter (alat)  =       7.3521  a.u.
     unit-cell volume          =     397.4058 (a.u.)^3
     number of atoms/cell      =            4
     number of atomic types    =            1
     number of electrons       =        72.00
     number of Kohn-Sham states=           43
     kinetic-energy cutoff     =      71.0000  Ry
     charge density cutoff     =     460.0000  Ry
     convergence threshold     =      1.0E-06
     mixing beta               =       0.1000
     number of iterations used =           10  plain     mixing
     Exchange-correlation      = SLA PW PBX PBC ( 1  4  3  4 0 0)

     celldm(1)=   7.352100  celldm(2)=   0.000000  celldm(3)=   0.000000
     celldm(4)=   0.000000  celldm(5)=   0.000000  celldm(6)=   0.000000

     crystal axes: (cart. coord. in units of alat)
               a(1) = (   1.000000   0.000000   0.000000 )  
               a(2) = (   0.000000   1.000000   0.000000 )  
               a(3) = (   0.000000   0.000000   1.000000 )  

     reciprocal axes: (cart. coord. in units 2 pi/alat)
               b(1) = (  1.000000  0.000000  0.000000 )  
               b(2) = (  0.000000  1.000000  0.000000 )  
               b(3) = (  0.000000  0.000000  1.000000 )  


     PseudoPot. # 1 for Pd read from file:
     /rds/homes/b/bxp912/pp/Pd.pbe-spn-kjpaw_psl.1.0.0.UPF
     MD5 check sum: 790f2ebce206edfd9790dcb9844eca51
     Pseudo is Projector augmented-wave + core cor, Zval = 18.0
     Generated using "atomic" code by A. Dal Corso v.6.3
     Shape of augmentation charge: PSQ
     Using radial grid of 1235 points,  6 beta functions with: 
                l(1) =   0
                l(2) =   0
                l(3) =   1
                l(4) =   1
                l(5) =   2
                l(6) =   2
     Q(r) pseudized with 0 coefficients 


     atomic species   valence    mass     pseudopotential
        Pd            18.00   106.42000     Pd( 1.00)

     No symmetry found



   Cartesian axes

     site n.     atom                  positions (alat units)
         1           Pd  tau(   1) = (  -0.0000679   0.0000198   0.0001413  )
         2           Pd  tau(   2) = (   0.5001653   0.4996054   0.0001461  )
         3           Pd  tau(   3) = (   0.4998071   0.0000633   0.5006138  )
         4           Pd  tau(   4) = (  -0.0000415   0.5004543   0.5003815  )

     number of k points=    63  Marzari-Vanderbilt smearing, width (Ry)=  0.0300
                       cart. coord. in units 2pi/alat
        k(    1) = (   0.1000000   0.1000000   0.1000000), wk =   0.0320000
        k(    2) = (   0.1000000   0.1000000   0.3000000), wk =   0.0320000
        k(    3) = (   0.1000000   0.1000000  -0.5000000), wk =   0.0320000
        k(    4) = (   0.1000000   0.3000000   0.3000000), wk =   0.0320000
        k(    5) = (   0.1000000   0.3000000  -0.5000000), wk =   0.0320000
        k(    6) = (   0.1000000  -0.5000000  -0.5000000), wk =   0.0320000
        k(    7) = (   0.3000000   0.3000000   0.3000000), wk =   0.0320000
        k(    8) = (   0.3000000   0.3000000  -0.5000000), wk =   0.0320000
        k(    9) = (   0.3000000  -0.5000000  -0.5000000), wk =   0.0320000
        k(   10) = (  -0.5000000  -0.5000000  -0.5000000), wk =   0.0160000
        k(   11) = (  -0.1000000  -0.1000000   0.1000000), wk =   0.0320000
        k(   12) = (  -0.1000000   0.1000000  -0.1000000), wk =   0.0320000
        k(   13) = (   0.1000000  -0.1000000  -0.1000000), wk =   0.0320000
        k(   14) = (  -0.1000000  -0.1000000   0.3000000), wk =   0.0320000
        k(   15) = (  -0.1000000   0.1000000  -0.3000000), wk =   0.0320000
        k(   16) = (   0.1000000  -0.1000000  -0.3000000), wk =   0.0320000
        k(   17) = (   0.3000000  -0.1000000   0.1000000), wk =   0.0320000
        k(   18) = (  -0.3000000  -0.1000000  -0.1000000), wk =   0.0320000
        k(   19) = (   0.3000000   0.1000000  -0.1000000), wk =   0.0320000
        k(   20) = (  -0.3000000   0.1000000   0.1000000), wk =   0.0320000
        k(   21) = (  -0.1000000   0.3000000   0.1000000), wk =   0.0320000
        k(   22) = (  -0.1000000  -0.3000000  -0.1000000), wk =   0.0320000
        k(   23) = (   0.1000000   0.3000000  -0.1000000), wk =   0.0320000
        k(   24) = (   0.1000000  -0.3000000   0.1000000), wk =   0.0320000
        k(   25) = (  -0.1000000   0.1000000   0.5000000), wk =   0.0320000
        k(   26) = (  -0.5000000  -0.1000000   0.1000000), wk =   0.0320000
        k(   27) = (   0.5000000  -0.1000000  -0.1000000), wk =   0.0320000
        k(   28) = (  -0.1000000  -0.5000000   0.1000000), wk =   0.0320000
        k(   29) = (  -0.1000000   0.5000000  -0.1000000), wk =   0.0320000
        k(   30) = (  -0.1000000  -0.3000000   0.3000000), wk =   0.0320000
        k(   31) = (  -0.1000000   0.3000000  -0.3000000), wk =   0.0320000
        k(   32) = (   0.1000000  -0.3000000  -0.3000000), wk =   0.0320000
        k(   33) = (   0.3000000   0.1000000  -0.3000000), wk =   0.0320000
        k(   34) = (  -0.3000000  -0.1000000  -0.3000000), wk =   0.0320000
        k(   35) = (   0.3000000  -0.1000000   0.3000000), wk =   0.0320000
        k(   36) = (  -0.3000000   0.1000000   0.3000000), wk =   0.0320000
        k(   37) = (   0.3000000  -0.3000000   0.1000000), wk =   0.0320000
        k(   38) = (  -0.3000000  -0.3000000  -0.1000000), wk =   0.0320000
        k(   39) = (   0.3000000   0.3000000  -0.1000000), wk =   0.0320000
        k(   40) = (  -0.3000000   0.3000000   0.1000000), wk =   0.0320000
        k(   41) = (  -0.1000000   0.3000000   0.5000000), wk =   0.0320000
        k(   42) = (   0.3000000   0.1000000   0.5000000), wk =   0.0320000
        k(   43) = (   0.3000000  -0.1000000  -0.5000000), wk =   0.0320000
        k(   44) = (  -0.5000000  -0.3000000   0.1000000), wk =   0.0320000
        k(   45) = (   0.5000000  -0.3000000  -0.1000000), wk =   0.0320000
        k(   46) = (  -0.1000000  -0.5000000   0.3000000), wk =   0.0320000
        k(   47) = (  -0.1000000   0.5000000  -0.3000000), wk =   0.0320000
        k(   48) = (   0.3000000  -0.5000000   0.1000000), wk =   0.0320000
        k(   49) = (   0.3000000   0.5000000  -0.1000000), wk =   0.0320000
        k(   50) = (  -0.5000000   0.1000000   0.3000000), wk =   0.0320000
        k(   51) = (   0.5000000  -0.1000000   0.3000000), wk =   0.0320000
        k(   52) = (  -0.5000000   0.1000000   0.5000000), wk =   0.0320000
        k(   53) = (  -0.5000000   0.5000000   0.1000000), wk =   0.0320000
        k(   54) = (  -0.3000000  -0.3000000   0.3000000), wk =   0.0320000
        k(   55) = (  -0.3000000   0.3000000  -0.3000000), wk =   0.0320000
        k(   56) = (   0.3000000  -0.3000000  -0.3000000), wk =   0.0320000
        k(   57) = (  -0.3000000   0.3000000   0.5000000), wk =   0.0320000
        k(   58) = (  -0.5000000  -0.3000000   0.3000000), wk =   0.0320000
        k(   59) = (   0.5000000  -0.3000000  -0.3000000), wk =   0.0320000
        k(   60) = (  -0.3000000  -0.5000000   0.3000000), wk =   0.0320000
        k(   61) = (  -0.3000000   0.5000000  -0.3000000), wk =   0.0320000
        k(   62) = (  -0.5000000   0.3000000   0.5000000), wk =   0.0320000
        k(   63) = (  -0.5000000   0.5000000   0.3000000), wk =   0.0320000

     Dense  grid:    66299 G-vectors     FFT dimensions: (  54,  54,  54)

     Smooth grid:    31967 G-vectors     FFT dimensions: (  40,  40,  40)

     Estimated max dynamical RAM per process >      22.97 MB

     Estimated total dynamical RAM >     459.33 MB

     Check: negative/imaginary core charge=   -0.000002    0.000000

     Initial potential from superposition of free atoms

     starting charge   71.99847, renormalised to   72.00000
     Starting wfcs are   40 randomized atomic wfcs +    3 random wfcs
     Checking if some PAW data can be deallocated... 

     total cpu time spent up to now is        1.6 secs

     Self-consistent Calculation

     iteration #  1     ecut=    71.00 Ry     beta= 0.10
     Davidson diagonalization with overlap
     ethr =  1.00E-02,  avg # of iterations =  3.0

     Threshold (ethr) on eigenvalues was too large:
     Diagonalizing with lowered threshold

     Davidson diagonalization with overlap
     ethr =  7.73E-05,  avg # of iterations =  2.6

     total cpu time spent up to now is        5.9 secs

     total energy              =   -2048.12683000 Ry
     Harris-Foulkes estimate   =   -2048.13447543 Ry
     estimated scf accuracy    <       0.05389765 Ry

     iteration #  2     ecut=    71.00 Ry     beta= 0.10
     Davidson diagonalization with overlap
     ethr =  7.49E-05,  avg # of iterations =  1.0

     total cpu time spent up to now is        7.5 secs

     total energy              =   -2048.11539183 Ry
     Harris-Foulkes estimate   =   -2048.12764419 Ry
     estimated scf accuracy    <       0.03013313 Ry

     iteration #  3     ecut=    71.00 Ry     beta= 0.10
     Davidson diagonalization with overlap
     ethr =  4.19E-05,  avg # of iterations =  2.0

     total cpu time spent up to now is        9.6 secs

     total energy              =   -2048.11967264 Ry
     Harris-Foulkes estimate   =   -2048.11994047 Ry
     estimated scf accuracy    <       0.00273386 Ry

     iteration #  4     ecut=    71.00 Ry     beta= 0.10
     Davidson diagonalization with overlap
     ethr =  3.80E-06,  avg # of iterations =  1.3

     total cpu time spent up to now is       11.2 secs

     total energy              =   -2048.11891864 Ry
     Harris-Foulkes estimate   =   -2048.11969891 Ry
     estimated scf accuracy    <       0.00197732 Ry

     iteration #  5     ecut=    71.00 Ry     beta= 0.10
     Davidson diagonalization with overlap
     ethr =  2.75E-06,  avg # of iterations =  2.0

     total cpu time spent up to now is       13.1 secs

     total energy              =   -2048.11905830 Ry
     Harris-Foulkes estimate   =   -2048.11906609 Ry
     estimated scf accuracy    <       0.00002244 Ry

     iteration #  6     ecut=    71.00 Ry     beta= 0.10
     Davidson diagonalization with overlap
     ethr =  3.12E-08,  avg # of iterations =  2.9

     total cpu time spent up to now is       15.7 secs

     total energy              =   -2048.11906398 Ry
     Harris-Foulkes estimate   =   -2048.11906475 Ry
     estimated scf accuracy    <       0.00000908 Ry

     iteration #  7     ecut=    71.00 Ry     beta= 0.10
     Davidson diagonalization with overlap
     ethr =  1.26E-08,  avg # of iterations =  1.0

     total cpu time spent up to now is       17.3 secs

     total energy              =   -2048.11906135 Ry
     Harris-Foulkes estimate   =   -2048.11906451 Ry
     estimated scf accuracy    <       0.00000810 Ry

     iteration #  8     ecut=    71.00 Ry     beta= 0.10
     Davidson diagonalization with overlap
     ethr =  1.13E-08,  avg # of iterations =  2.1

     total cpu time spent up to now is       19.3 secs

     End of self-consistent calculation

          k = 0.1000 0.1000 0.1000 (  3971 PWs)   bands (ev):

   -64.1831 -64.1171 -64.1169 -64.1167 -30.0549 -30.0549 -30.0548 -29.8497
   -29.8493 -29.8488 -29.8279 -29.8278 -29.8276 -29.7216 -29.6868 -29.6868
    13.1453  14.7498  14.7501  14.7509  15.0367  15.0380  15.0392  17.0035
    17.2414  17.2414  18.6873  18.6873  19.4563  19.4570  19.4576  19.6380
    19.6386  19.6388  20.1599  20.1600  20.1601  23.6210  23.6219  23.6228
    31.3767  31.3796  31.3825

          k = 0.1000 0.1000 0.3000 (  4005 PWs)   bands (ev):

   -64.1705 -64.1296 -64.1169 -64.1169 -30.0199 -30.0197 -29.9988 -29.8924
   -29.8917 -29.8226 -29.8224 -29.8137 -29.8011 -29.7983 -29.7141 -29.7076
    14.0078  15.1157  15.2341  15.2367  15.3940  15.6106  15.6138  16.6145
    17.5419  17.5805  17.9442  17.9478  18.3666  18.5298  18.9658  19.0191
    19.1072  19.1105  19.8828  20.0821  20.0828  21.0325  25.6440  25.6462
    29.8726  29.8764  31.7016

          k = 0.1000 0.1000-0.5000 (  4022 PWs)   bands (ev):

   -64.1502 -64.1499 -64.1169 -64.1169 -29.9780 -29.9779 -29.9358 -29.9358
   -29.9031 -29.9022 -29.8224 -29.8224 -29.7584 -29.7581 -29.7578 -29.7573
    15.1222  15.1231  15.7494  15.7494  15.9810  15.9876  16.3690  16.3690
    16.7237  16.7237  17.5995  17.6071  18.2191  18.2231  18.6212  18.6212
    19.0573  19.0634  19.4204  19.4230  20.0594  20.0594  27.6732  27.6733
    28.0755  28.0755  31.9562

          k = 0.1000 0.3000 0.3000 (  4015 PWs)   bands (ev):

   -64.1602 -64.1273 -64.1269 -64.1193 -30.0060 -30.0059 -30.0049 -29.9169
   -29.8758 -29.8455 -29.8444 -29.7908 -29.7876 -29.7872 -29.7404 -29.7039
    14.6482  15.4398  15.5189  15.5198  15.9847  15.9863  16.1497  16.6849
    17.2811  17.2832  17.4507  17.5372  17.6221  18.3984  18.5902  18.7134
    18.7167  19.4060  19.6989  19.7026  19.7408  22.7184  22.7222  26.5208
    27.5504  31.2227  31.2239

          k = 0.1000 0.3000-0.5000 (  4036 PWs)   bands (ev):

   -64.1438 -64.1435 -64.1232 -64.1231 -30.0056 -30.0053 -29.9558 -29.9554
   -29.8926 -29.8920 -29.7892 -29.7886 -29.7791 -29.7787 -29.7361 -29.7360
    15.4304  15.4311  15.9622  15.9627  16.2424  16.2430  16.5190  16.5235
    16.9880  16.9898  17.0434  17.0490  18.0155  18.0178  18.3318  18.3330
    18.9408  18.9431  19.5333  19.5361  20.5662  20.5676  24.6023  24.6062
    29.1737  29.1749  33.0509

          k = 0.1000-0.5000-0.5000 (  4008 PWs)   bands (ev):

   -64.1337 -64.1336 -64.1332 -64.1331 -29.9988 -29.9987 -29.9985 -29.9985
   -29.8399 -29.8397 -29.8387 -29.8384 -29.7415 -29.7414 -29.7410 -29.7408
    15.7046  15.7050  15.7062  15.7065  16.7016  16.7024  16.7055  16.7064
    17.1805  17.1812  17.1836  17.1842  17.8690  17.8695  17.8713  17.8718
    18.9233  18.9249  18.9304  18.9320  22.2470  22.2486  22.2525  22.2539
    30.9972  30.9978  30.9985

          k = 0.3000 0.3000 0.3000 (  4013 PWs)   bands (ev):

   -64.1524 -64.1273 -64.1271 -64.1268 -30.0418 -30.0417 -30.0416 -29.9549
   -29.8234 -29.8228 -29.8220 -29.7745 -29.7744 -29.7743 -29.7205 -29.7205
    14.7080  15.3234  15.3235  15.3235  16.4715  16.4716  16.4720  17.3419
    17.3419  17.5566  17.5598  17.5630  17.6538  17.9314  17.9316  17.9316
    19.1534  19.1534  20.0109  20.0116  20.0123  23.3497  23.3498  23.3501
    28.4660  28.4669  28.4677

          k = 0.3000 0.3000-0.5000 (  4002 PWs)   bands (ev):

   -64.1398 -64.1396 -64.1270 -64.1270 -30.0593 -30.0593 -30.0225 -30.0224
   -29.8160 -29.8159 -29.7639 -29.7639 -29.7482 -29.7480 -29.7476 -29.7471
    14.9713  14.9728  15.2984  15.2984  16.5517  16.5518  17.0346  17.0397
    17.4462  17.4468  17.6849  17.6849  17.8321  17.8361  17.9387  17.9387
    19.7976  19.7983  19.8474  19.8474  20.4557  20.4565  23.8832  23.8832
    27.2987  27.2987  30.3732

          k = 0.3000-0.5000-0.5000 (  4024 PWs)   bands (ev):

   -64.1336 -64.1335 -64.1332 -64.1331 -30.0671 -30.0670 -30.0669 -30.0669
   -29.7711 -29.7710 -29.7705 -29.7704 -29.7414 -29.7414 -29.7411 -29.7410
    14.9261  14.9264  14.9274  14.9275  16.9440  16.9449  16.9472  16.9481
    17.2931  17.2935  17.2951  17.2955  18.6642  18.6654  18.6689  18.6701
    19.6388  19.6397  19.6428  19.6437  21.7946  21.7960  21.7996  21.8008
    28.2957  28.2962  28.2973

          k =-0.5000-0.5000-0.5000 (  4032 PWs)   bands (ev):

   -64.1335 -64.1335 -64.1331 -64.1331 -30.0964 -30.0963 -30.0963 -30.0962
   -29.7415 -29.7415 -29.7414 -29.7414 -29.7413 -29.7412 -29.7412 -29.7412
    14.6477  14.6477  14.6479  14.6479  17.0716  17.0717  17.0717  17.0717
    17.0718  17.0718  17.0719  17.0719  19.9508  19.9508  19.9509  19.9509
    19.9509  19.9510  19.9510  19.9510  20.9520  20.9521  20.9526  20.9528
    27.2975  27.2976  27.2979

          k =-0.1000-0.1000 0.1000 (  3971 PWs)   bands (ev):

   -64.1831 -64.1171 -64.1169 -64.1167 -30.0549 -30.0549 -30.0548 -29.8496
   -29.8494 -29.8489 -29.8279 -29.8277 -29.8276 -29.7216 -29.6868 -29.6867
    13.1453  14.7498  14.7502  14.7508  15.0370  15.0380  15.0390  17.0035
    17.2414  17.2415  18.6873  18.6873  19.4564  19.4570  19.4574  19.6380
    19.6385  19.6387  20.1600  20.1600  20.1601  23.6212  23.6219  23.6226
    31.3773  31.3796  31.3819

          k =-0.1000 0.1000-0.1000 (  3971 PWs)   bands (ev):

   -64.1831 -64.1171 -64.1169 -64.1167 -30.0549 -30.0549 -30.0548 -29.8496
   -29.8493 -29.8491 -29.8279 -29.8277 -29.8276 -29.7217 -29.6868 -29.6867
    13.1453  14.7499  14.7504  14.7506  15.0373  15.0380  15.0387  17.0035
    17.2414  17.2415  18.6873  18.6873  19.4566  19.4569  19.4573  19.6382
    19.6384  19.6387  20.1600  20.1600  20.1601  23.6214  23.6219  23.6224
    31.3779  31.3796  31.3813

          k = 0.1000-0.1000-0.1000 (  3971 PWs)   bands (ev):

   -64.1831 -64.1171 -64.1169 -64.1167 -30.0549 -30.0549 -30.0548 -29.8496
   -29.8493 -29.8490 -29.8279 -29.8278 -29.8276 -29.7216 -29.6868 -29.6868
    13.1453  14.7499  14.7503  14.7507  15.0371  15.0380  15.0388  17.0035
    17.2414  17.2414  18.6873  18.6873  19.4565  19.4570  19.4574  19.6381
    19.6384  19.6387  20.1600  20.1600  20.1601  23.6213  23.6219  23.6225
    31.3776  31.3796  31.3816

          k =-0.1000-0.1000 0.3000 (  4005 PWs)   bands (ev):

   -64.1705 -64.1296 -64.1169 -64.1169 -30.0199 -30.0197 -29.9988 -29.8925
   -29.8917 -29.8226 -29.8224 -29.8137 -29.8011 -29.7984 -29.7141 -29.7076
    14.0078  15.1158  15.2341  15.2368  15.3940  15.6106  15.6138  16.6145
    17.5419  17.5805  17.9441  17.9478  18.3666  18.5299  18.9660  19.0188
    19.1072  19.1105  19.8828  20.0821  20.0828  21.0325  25.6440  25.6462
    29.8726  29.8765  31.7016

          k =-0.1000 0.1000-0.3000 (  4005 PWs)   bands (ev):

   -64.1705 -64.1296 -64.1169 -64.1169 -30.0199 -30.0198 -29.9988 -29.8923
   -29.8919 -29.8225 -29.8224 -29.8138 -29.8010 -29.7984 -29.7140 -29.7076
    14.0078  15.1158  15.2348  15.2360  15.3940  15.6115  15.6129  16.6145
    17.5419  17.5805  17.9451  17.9468  18.3665  18.5299  18.9660  19.0188
    19.1081  19.1096  19.8828  20.0823  20.0826  21.0325  25.6446  25.6456
    29.8737  29.8754  31.7033

          k = 0.1000-0.1000-0.3000 (  4005 PWs)   bands (ev):

   -64.1705 -64.1296 -64.1169 -64.1169 -30.0199 -30.0198 -29.9988 -29.8923
   -29.8919 -29.8225 -29.8224 -29.8138 -29.8010 -29.7984 -29.7140 -29.7076
    14.0078  15.1158  15.2348  15.2360  15.3940  15.6115  15.6129  16.6145
    17.5419  17.5805  17.9451  17.9468  18.3666  18.5298  18.9656  19.0192
    19.1081  19.1096  19.8828  20.0823  20.0826  21.0325  25.6446  25.6456
    29.8736  29.8754  31.7040

          k = 0.3000-0.1000 0.1000 (  4005 PWs)   bands (ev):

   -64.1705 -64.1296 -64.1171 -64.1167 -30.0199 -30.0198 -29.9988 -29.8923
   -29.8919 -29.8227 -29.8223 -29.8138 -29.8010 -29.7984 -29.7140 -29.7076
    14.0078  15.1158  15.2348  15.2361  15.3940  15.6115  15.6129  16.6145
    17.5419  17.5806  17.9451  17.9468  18.3666  18.5298  18.9659  19.0189
    19.1081  19.1096  19.8828  20.0823  20.0827  21.0324  25.6446  25.6456
    29.8737  29.8754  31.7036

          k =-0.3000-0.1000-0.1000 (  4005 PWs)   bands (ev):

   -64.1705 -64.1296 -64.1171 -64.1167 -30.0199 -30.0198 -29.9988 -29.8924
   -29.8917 -29.8227 -29.8223 -29.8137 -29.8010 -29.7984 -29.7140 -29.7076
    14.0078  15.1157  15.2343  15.2366  15.3940  15.6109  15.6136  16.6145
    17.5419  17.5805  17.9444  17.9475  18.3666  18.5298  18.9660  19.0188
    19.1075  19.1103  19.8828  20.0821  20.0828  21.0325  25.6441  25.6461
    29.8729  29.8762  31.7028

          k = 0.3000 0.1000-0.1000 (  4005 PWs)   bands (ev):

   -64.1705 -64.1296 -64.1171 -64.1167 -30.0199 -30.0198 -29.9988 -29.8923
   -29.8919 -29.8227 -29.8223 -29.8138 -29.8010 -29.7984 -29.7140 -29.7076
    14.0078  15.1158  15.2348  15.2361  15.3940  15.6115  15.6129  16.6145
    17.5419  17.5806  17.9451  17.9468  18.3666  18.5298  18.9659  19.0189
    19.1081  19.1096  19.8828  20.0823  20.0827  21.0324  25.6446  25.6456
    29.8737  29.8754  31.7038

          k =-0.3000 0.1000 0.1000 (  4005 PWs)   bands (ev):

   -64.1705 -64.1296 -64.1171 -64.1167 -30.0199 -30.0197 -29.9988 -29.8924
   -29.8918 -29.8227 -29.8223 -29.8137 -29.8010 -29.7984 -29.7140 -29.7076
    14.0078  15.1158  15.2343  15.2366  15.3940  15.6109  15.6135  16.6145
    17.5420  17.5805  17.9444  17.9475  18.3666  18.5298  18.9660  19.0188
    19.1075  19.1103  19.8828  20.0822  20.0828  21.0325  25.6441  25.6461
    29.8729  29.8762  31.7027

          k =-0.1000 0.3000 0.1000 (  4005 PWs)   bands (ev):

   -64.1705 -64.1296 -64.1169 -64.1168 -30.0198 -30.0198 -29.9988 -29.8921
   -29.8920 -29.8225 -29.8224 -29.8138 -29.8010 -29.7984 -29.7140 -29.7076
    14.0078  15.1158  15.2352  15.2356  15.3940  15.6120  15.6124  16.6145
    17.5419  17.5805  17.9458  17.9462  18.3666  18.5298  18.9659  19.0188
    19.1087  19.1091  19.8828  20.0824  20.0825  21.0325  25.6450  25.6453
    29.8743  29.8748  31.7041

          k =-0.1000-0.3000-0.1000 (  4005 PWs)   bands (ev):

   -64.1705 -64.1296 -64.1169 -64.1168 -30.0199 -30.0198 -29.9988 -29.8923
   -29.8919 -29.8225 -29.8224 -29.8137 -29.8010 -29.7983 -29.7141 -29.7076
    14.0078  15.1158  15.2347  15.2361  15.3940  15.6114  15.6130  16.6145
    17.5419  17.5805  17.9451  17.9469  18.3667  18.5298  18.9659  19.0188
    19.1081  19.1097  19.8828  20.0823  20.0826  21.0325  25.6445  25.6457
    29.8736  29.8755  31.7049

          k = 0.1000 0.3000-0.1000 (  4005 PWs)   bands (ev):

   -64.1705 -64.1296 -64.1169 -64.1168 -30.0199 -30.0198 -29.9988 -29.8921
   -29.8920 -29.8225 -29.8224 -29.8138 -29.8010 -29.7984 -29.7140 -29.7076
    14.0078  15.1158  15.2352  15.2356  15.3940  15.6120  15.6124  16.6145
    17.5419  17.5805  17.9458  17.9462  18.3666  18.5298  18.9659  19.0188
    19.1087  19.1091  19.8828  20.0824  20.0825  21.0325  25.6450  25.6453
    29.8743  29.8748  31.7035

          k = 0.1000-0.3000 0.1000 (  4005 PWs)   bands (ev):

   -64.1705 -64.1296 -64.1169 -64.1168 -30.0199 -30.0198 -29.9988 -29.8923
   -29.8919 -29.8225 -29.8224 -29.8138 -29.8010 -29.7984 -29.7141 -29.7076
    14.0078  15.1158  15.2348  15.2361  15.3940  15.6114  15.6130  16.6145
    17.5419  17.5805  17.9451  17.9469  18.3666  18.5298  18.9659  19.0188
    19.1081  19.1097  19.8828  20.0823  20.0826  21.0325  25.6445  25.6457
    29.8736  29.8755  31.7028

          k =-0.1000 0.1000 0.5000 (  4022 PWs)   bands (ev):

   -64.1502 -64.1499 -64.1169 -64.1169 -29.9780 -29.9779 -29.9359 -29.9358
   -29.9031 -29.9022 -29.8224 -29.8224 -29.7584 -29.7580 -29.7579 -29.7573
    15.1222  15.1231  15.7494  15.7494  15.9810  15.9876  16.3690  16.3690
    16.7237  16.7237  17.5996  17.6071  18.2191  18.2231  18.6212  18.6212
    19.0573  19.0634  19.4205  19.4230  20.0594  20.0594  27.6733  27.6733
    28.0755  28.0756  31.9562

          k =-0.5000-0.1000 0.1000 (  4022 PWs)   bands (ev):

   -64.1502 -64.1498 -64.1171 -64.1167 -29.9779 -29.9779 -29.9359 -29.9358
   -29.9029 -29.9024 -29.8226 -29.8222 -29.7582 -29.7581 -29.7577 -29.7575
    15.1224  15.1230  15.7492  15.7496  15.9839  15.9847  16.3690  16.3691
    16.7236  16.7237  17.6029  17.6037  18.2209  18.2214  18.6210  18.6213
    19.0600  19.0607  19.4216  19.4219  20.0593  20.0595  27.6730  27.6736
    28.0753  28.0757  31.9561

          k = 0.5000-0.1000-0.1000 (  4022 PWs)   bands (ev):

   -64.1502 -64.1498 -64.1171 -64.1167 -29.9780 -29.9779 -29.9359 -29.9358
   -29.9028 -29.9024 -29.8226 -29.8222 -29.7582 -29.7581 -29.7577 -29.7575
    15.1224  15.1230  15.7492  15.7496  15.9839  15.9847  16.3690  16.3691
    16.7236  16.7237  17.6029  17.6038  18.2209  18.2213  18.6211  18.6213
    19.0600  19.0607  19.4215  19.4219  20.0593  20.0595  27.6730  27.6736
    28.0753  28.0757  31.9561

          k =-0.1000-0.5000 0.1000 (  4022 PWs)   bands (ev):

   -64.1501 -64.1500 -64.1169 -64.1168 -29.9780 -29.9779 -29.9359 -29.9359
   -29.9027 -29.9026 -29.8224 -29.8223 -29.7581 -29.7581 -29.7576 -29.7576
    15.1226  15.1228  15.7493  15.7494  15.9842  15.9844  16.3690  16.3690
    16.7236  16.7237  17.6032  17.6035  18.2210  18.2212  18.6212  18.6212
    19.0603  19.0605  19.4217  19.4218  20.0594  20.0594  27.6732  27.6734
    28.0755  28.0756  31.9562

          k =-0.1000 0.5000-0.1000 (  4022 PWs)   bands (ev):

   -64.1501 -64.1500 -64.1169 -64.1168 -29.9780 -29.9780 -29.9359 -29.9358
   -29.9027 -29.9026 -29.8224 -29.8223 -29.7582 -29.7581 -29.7577 -29.7576
    15.1226  15.1228  15.7493  15.7494  15.9842  15.9844  16.3690  16.3690
    16.7236  16.7237  17.6032  17.6035  18.2210  18.2212  18.6211  18.6212
    19.0603  19.0605  19.4217  19.4218  20.0594  20.0594  27.6732  27.6734
    28.0755  28.0756  31.9562

          k =-0.1000-0.3000 0.3000 (  4015 PWs)   bands (ev):

   -64.1602 -64.1273 -64.1269 -64.1193 -30.0060 -30.0059 -30.0049 -29.9169
   -29.8758 -29.8453 -29.8446 -29.7908 -29.7875 -29.7873 -29.7404 -29.7038
    14.6482  15.4398  15.5191  15.5197  15.9851  15.9859  16.1497  16.6849
    17.2815  17.2827  17.4507  17.5372  17.6222  18.3983  18.5902  18.7141
    18.7159  19.4060  19.6997  19.7017  19.7410  22.7193  22.7213  26.5208
    27.5504  31.2230  31.2236

          k =-0.1000 0.3000-0.3000 (  4015 PWs)   bands (ev):

   -64.1602 -64.1273 -64.1269 -64.1193 -30.0060 -30.0059 -30.0049 -29.9169
   -29.8758 -29.8454 -29.8446 -29.7908 -29.7875 -29.7873 -29.7404 -29.7038
    14.6482  15.4398  15.5191  15.5197  15.9851  15.9859  16.1497  16.6849
    17.2815  17.2827  17.4507  17.5372  17.6222  18.3983  18.5902  18.7141
    18.7159  19.4060  19.6997  19.7018  19.7409  22.7193  22.7213  26.5208
    27.5504  31.2230  31.2236

          k = 0.1000-0.3000-0.3000 (  4015 PWs)   bands (ev):

   -64.1602 -64.1273 -64.1269 -64.1193 -30.0060 -30.0059 -30.0048 -29.9169
   -29.8758 -29.8456 -29.8444 -29.7908 -29.7876 -29.7872 -29.7404 -29.7039
    14.6482  15.4398  15.5189  15.5199  15.9847  15.9863  16.1497  16.6849
    17.2811  17.2832  17.4507  17.5372  17.6222  18.3983  18.5902  18.7133
    18.7166  19.4060  19.6990  19.7027  19.7408  22.7184  22.7222  26.5208
    27.5504  31.2227  31.2238

          k = 0.3000 0.1000-0.3000 (  4015 PWs)   bands (ev):

   -64.1602 -64.1271 -64.1271 -64.1193 -30.0060 -30.0059 -30.0048 -29.9169
   -29.8758 -29.8451 -29.8448 -29.7908 -29.7875 -29.7874 -29.7403 -29.7039
    14.6482  15.4398  15.5193  15.5194  15.9854  15.9856  16.1497  16.6849
    17.2819  17.2822  17.4508  17.5372  17.6221  18.3983  18.5901  18.7148
    18.7153  19.4060  19.7005  19.7011  19.7408  22.7200  22.7206  26.5208
    27.5504  31.2232  31.2234

          k =-0.3000-0.1000-0.3000 (  4015 PWs)   bands (ev):

   -64.1602 -64.1272 -64.1270 -64.1193 -30.0060 -30.0060 -30.0049 -29.9169
   -29.8758 -29.8453 -29.8446 -29.7908 -29.7875 -29.7873 -29.7404 -29.7039
    14.6482  15.4397  15.5191  15.5196  15.9851  15.9859  16.1498  16.6849
    17.2815  17.2827  17.4507  17.5372  17.6221  18.3983  18.5902  18.7141
    18.7160  19.4060  19.6996  19.7018  19.7409  22.7192  22.7214  26.5208
    27.5504  31.2229  31.2236

          k = 0.3000-0.1000 0.3000 (  4015 PWs)   bands (ev):

   -64.1602 -64.1272 -64.1270 -64.1193 -30.0060 -30.0060 -30.0048 -29.9169
   -29.8758 -29.8453 -29.8447 -29.7908 -29.7875 -29.7873 -29.7403 -29.7039
    14.6482  15.4398  15.5191  15.5197  15.9850  15.9859  16.1497  16.6849
    17.2815  17.2827  17.4507  17.5372  17.6221  18.3983  18.5901  18.7140
    18.7160  19.4060  19.6997  19.7019  19.7409  22.7192  22.7214  26.5208
    27.5504  31.2230  31.2236

          k =-0.3000 0.1000 0.3000 (  4015 PWs)   bands (ev):

   -64.1602 -64.1271 -64.1271 -64.1193 -30.0060 -30.0059 -30.0048 -29.9169
   -29.8758 -29.8450 -29.8449 -29.7908 -29.7875 -29.7874 -29.7404 -29.7039
    14.6482  15.4398  15.5193  15.5195  15.9854  15.9856  16.1497  16.6849
    17.2819  17.2822  17.4508  17.5372  17.6221  18.3983  18.5901  18.7148
    18.7153  19.4060  19.7005  19.7010  19.7409  22.7200  22.7206  26.5208
    27.5504  31.2232  31.2234

          k = 0.3000-0.3000 0.1000 (  4015 PWs)   bands (ev):

   -64.1602 -64.1272 -64.1271 -64.1193 -30.0060 -30.0059 -30.0049 -29.9169
   -29.8758 -29.8453 -29.8447 -29.7908 -29.7875 -29.7873 -29.7404 -29.7038
    14.6482  15.4398  15.5191  15.5196  15.9851  15.9859  16.1497  16.6849
    17.2815  17.2827  17.4507  17.5373  17.6221  18.3983  18.5902  18.7141
    18.7159  19.4060  19.6998  19.7018  19.7409  22.7193  22.7213  26.5208
    27.5504  31.2230  31.2236

          k =-0.3000-0.3000-0.1000 (  4015 PWs)   bands (ev):

   -64.1602 -64.1272 -64.1270 -64.1193 -30.0060 -30.0059 -30.0049 -29.9169
   -29.8757 -29.8456 -29.8443 -29.7908 -29.7876 -29.7872 -29.7404 -29.7039
    14.6482  15.4397  15.5188  15.5199  15.9846  15.9864  16.1497  16.6849
    17.2809  17.2833  17.4506  17.5373  17.6222  18.3983  18.5902  18.7131
    18.7170  19.4060  19.6986  19.7029  19.7408  22.7181  22.7225  26.5208
    27.5504  31.2226  31.2239

          k = 0.3000 0.3000-0.1000 (  4015 PWs)   bands (ev):

   -64.1602 -64.1272 -64.1270 -64.1193 -30.0060 -30.0059 -30.0048 -29.9169
   -29.8758 -29.8456 -29.8444 -29.7908 -29.7876 -29.7872 -29.7404 -29.7039
    14.6482  15.4397  15.5188  15.5199  15.9846  15.9864  16.1497  16.6849
    17.2809  17.2833  17.4506  17.5372  17.6222  18.3983  18.5902  18.7130
    18.7169  19.4060  19.6986  19.7030  19.7408  22.7181  22.7225  26.5208
    27.5504  31.2226  31.2239

          k =-0.3000 0.3000 0.1000 (  4015 PWs)   bands (ev):

   -64.1602 -64.1272 -64.1271 -64.1193 -30.0060 -30.0059 -30.0049 -29.9169
   -29.8758 -29.8453 -29.8447 -29.7908 -29.7875 -29.7873 -29.7404 -29.7038
    14.6482  15.4398  15.5191  15.5196  15.9851  15.9859  16.1497  16.6849
    17.2815  17.2827  17.4506  17.5373  17.6221  18.3983  18.5902  18.7141
    18.7159  19.4060  19.6998  19.7018  19.7409  22.7193  22.7213  26.5208
    27.5504  31.2230  31.2236

          k =-0.1000 0.3000 0.5000 (  4036 PWs)   bands (ev):

   -64.1438 -64.1435 -64.1232 -64.1231 -30.0056 -30.0053 -29.9558 -29.9554
   -29.8926 -29.8920 -29.7892 -29.7886 -29.7791 -29.7787 -29.7361 -29.7360
    15.4304  15.4311  15.9622  15.9627  16.2424  16.2430  16.5190  16.5235
    16.9880  16.9898  17.0434  17.0491  18.0155  18.0178  18.3317  18.3330
    18.9408  18.9431  19.5333  19.5361  20.5662  20.5676  24.6023  24.6062
    29.1737  29.1749  33.0499

          k = 0.3000 0.1000 0.5000 (  4036 PWs)   bands (ev):

   -64.1438 -64.1435 -64.1232 -64.1231 -30.0056 -30.0054 -29.9558 -29.9554
   -29.8926 -29.8919 -29.7892 -29.7885 -29.7791 -29.7787 -29.7361 -29.7360
    15.4304  15.4311  15.9622  15.9627  16.2424  16.2430  16.5190  16.5235
    16.9880  16.9898  17.0434  17.0491  18.0155  18.0177  18.3317  18.3330
    18.9408  18.9431  19.5333  19.5361  20.5662  20.5676  24.6023  24.6062
    29.1737  29.1749  33.0490

          k = 0.3000-0.1000-0.5000 (  4036 PWs)   bands (ev):

   -64.1438 -64.1435 -64.1232 -64.1231 -30.0056 -30.0053 -29.9558 -29.9554
   -29.8926 -29.8920 -29.7892 -29.7885 -29.7791 -29.7787 -29.7361 -29.7360
    15.4304  15.4311  15.9622  15.9627  16.2424  16.2430  16.5190  16.5235
    16.9880  16.9898  17.0435  17.0491  18.0155  18.0178  18.3317  18.3330
    18.9408  18.9431  19.5333  19.5361  20.5662  20.5676  24.6023  24.6062
    29.1737  29.1749  33.0501

          k =-0.5000-0.3000 0.1000 (  4036 PWs)   bands (ev):

   -64.1438 -64.1435 -64.1234 -64.1230 -30.0055 -30.0054 -29.9557 -29.9555
   -29.8924 -29.8922 -29.7889 -29.7888 -29.7790 -29.7787 -29.7361 -29.7360
    15.4305  15.4310  15.9624  15.9625  16.2426  16.2429  16.5209  16.5216
    16.9886  16.9889  17.0460  17.0467  18.0165  18.0168  18.3322  18.3324
    18.9418  18.9421  19.5345  19.5349  20.5668  20.5670  24.6040  24.6046
    29.1741  29.1745  33.0500

          k = 0.5000-0.3000-0.1000 (  4036 PWs)   bands (ev):

   -64.1438 -64.1435 -64.1234 -64.1230 -30.0055 -30.0054 -29.9557 -29.9555
   -29.8923 -29.8922 -29.7889 -29.7888 -29.7790 -29.7787 -29.7361 -29.7360
    15.4305  15.4309  15.9624  15.9625  16.2426  16.2429  16.5209  16.5216
    16.9887  16.9890  17.0460  17.0466  18.0165  18.0168  18.3323  18.3325
    18.9418  18.9421  19.5345  19.5349  20.5668  20.5670  24.6040  24.6046
    29.1741  29.1745  33.0487

          k =-0.1000-0.5000 0.3000 (  4036 PWs)   bands (ev):

   -64.1437 -64.1436 -64.1232 -64.1231 -30.0055 -30.0054 -29.9556 -29.9556
   -29.8923 -29.8923 -29.7889 -29.7889 -29.7789 -29.7788 -29.7361 -29.7360
    15.4307  15.4308  15.9625  15.9625  16.2427  16.2428  16.5211  16.5213
    16.9888  16.9889  17.0462  17.0464  18.0166  18.0167  18.3323  18.3324
    18.9419  18.9420  19.5346  19.5348  20.5669  20.5669  24.6042  24.6043
    29.1743  29.1744  33.0499

          k =-0.1000 0.5000-0.3000 (  4036 PWs)   bands (ev):

   -64.1437 -64.1436 -64.1232 -64.1231 -30.0055 -30.0054 -29.9556 -29.9555
   -29.8923 -29.8923 -29.7889 -29.7889 -29.7789 -29.7788 -29.7361 -29.7360
    15.4307  15.4308  15.9625  15.9625  16.2427  16.2428  16.5212  16.5214
    16.9888  16.9889  17.0462  17.0464  18.0166  18.0167  18.3324  18.3324
    18.9419  18.9420  19.5346  19.5347  20.5669  20.5669  24.6042  24.6043
    29.1742  29.1744  33.0500

          k = 0.3000-0.5000 0.1000 (  4036 PWs)   bands (ev):

   -64.1437 -64.1436 -64.1232 -64.1231 -30.0055 -30.0054 -29.9556 -29.9555
   -29.8923 -29.8923 -29.7889 -29.7889 -29.7789 -29.7788 -29.7361 -29.7360
    15.4307  15.4308  15.9624  15.9625  16.2427  16.2428  16.5212  16.5214
    16.9887  16.9889  17.0463  17.0465  18.0166  18.0167  18.3323  18.3324
    18.9419  18.9420  19.5346  19.5347  20.5669  20.5669  24.6042  24.6043
    29.1742  29.1744  33.0497

          k = 0.3000 0.5000-0.1000 (  4036 PWs)   bands (ev):

   -64.1437 -64.1436 -64.1232 -64.1231 -30.0055 -30.0054 -29.9556 -29.9556
   -29.8923 -29.8923 -29.7889 -29.7889 -29.7789 -29.7788 -29.7361 -29.7360
    15.4307  15.4308  15.9625  15.9625  16.2427  16.2428  16.5212  16.5213
    16.9888  16.9889  17.0463  17.0465  18.0166  18.0167  18.3323  18.3324
    18.9419  18.9420  19.5346  19.5348  20.5669  20.5669  24.6042  24.6043
    29.1743  29.1744  33.0494

          k =-0.5000 0.1000 0.3000 (  4036 PWs)   bands (ev):

   -64.1438 -64.1435 -64.1234 -64.1230 -30.0055 -30.0054 -29.9557 -29.9555
   -29.8923 -29.8922 -29.7889 -29.7888 -29.7791 -29.7788 -29.7361 -29.7360
    15.4305  15.4309  15.9624  15.9625  16.2426  16.2429  16.5209  16.5216
    16.9888  16.9890  17.0459  17.0466  18.0165  18.0168  18.3323  18.3325
    18.9418  18.9421  19.5345  19.5349  20.5668  20.5670  24.6040  24.6046
    29.1741  29.1745  33.0496

          k = 0.5000-0.1000 0.3000 (  4036 PWs)   bands (ev):

   -64.1438 -64.1435 -64.1234 -64.1230 -30.0055 -30.0054 -29.9557 -29.9555
   -29.8924 -29.8922 -29.7889 -29.7888 -29.7790 -29.7787 -29.7361 -29.7360
    15.4305  15.4310  15.9624  15.9625  16.2425  16.2429  16.5210  16.5216
    16.9887  16.9890  17.0459  17.0466  18.0165  18.0168  18.3323  18.3325
    18.9418  18.9421  19.5345  19.5349  20.5668  20.5670  24.6039  24.6046
    29.1741  29.1745  33.0500

          k =-0.5000 0.1000 0.5000 (  4008 PWs)   bands (ev):

   -64.1336 -64.1335 -64.1333 -64.1331 -29.9988 -29.9987 -29.9986 -29.9984
   -29.8396 -29.8395 -29.8389 -29.8385 -29.7415 -29.7413 -29.7410 -29.7409
    15.7049  15.7052  15.7059  15.7064  16.7019  16.7029  16.7052  16.7059
    17.1811  17.1814  17.1830  17.1840  17.8693  17.8698  17.8710  17.8715
    18.9242  18.9259  18.9296  18.9311  22.2483  22.2496  22.2513  22.2529
    30.9970  30.9979  30.9983

          k =-0.5000 0.5000 0.1000 (  4008 PWs)   bands (ev):

   -64.1337 -64.1335 -64.1333 -64.1331 -29.9988 -29.9987 -29.9986 -29.9985
   -29.8398 -29.8394 -29.8389 -29.8385 -29.7415 -29.7413 -29.7411 -29.7408
    15.7046  15.7051  15.7060  15.7066  16.7019  16.7030  16.7049  16.7061
    17.1806  17.1816  17.1831  17.1841  17.8691  17.8698  17.8710  17.8717
    18.9236  18.9258  18.9296  18.9318  22.2467  22.2488  22.2523  22.2543
    30.9975  30.9978  30.9981

          k =-0.3000-0.3000 0.3000 (  4013 PWs)   bands (ev):

   -64.1524 -64.1273 -64.1271 -64.1268 -30.0417 -30.0417 -30.0416 -29.9549
   -29.8233 -29.8228 -29.8222 -29.7746 -29.7744 -29.7743 -29.7205 -29.7205
    14.7080  15.3235  15.3235  15.3235  16.4715  16.4717  16.4719  17.3419
    17.3419  17.5572  17.5598  17.5623  17.6539  17.9314  17.9316  17.9316
    19.1533  19.1534  20.0111  20.0116  20.0122  23.3497  23.3498  23.3500
    28.4662  28.4669  28.4675

          k =-0.3000 0.3000-0.3000 (  4013 PWs)   bands (ev):

   -64.1524 -64.1273 -64.1270 -64.1269 -30.0417 -30.0417 -30.0416 -29.9549
   -29.8232 -29.8227 -29.8224 -29.7745 -29.7744 -29.7743 -29.7205 -29.7205
    14.7080  15.3235  15.3235  15.3235  16.4715  16.4717  16.4718  17.3419
    17.3419  17.5579  17.5598  17.5616  17.6539  17.9314  17.9315  17.9316
    19.1533  19.1534  20.0112  20.0116  20.0121  23.3497  23.3499  23.3500
    28.4664  28.4668  28.4674

          k = 0.3000-0.3000-0.3000 (  4013 PWs)   bands (ev):

   -64.1524 -64.1273 -64.1271 -64.1268 -30.0417 -30.0417 -30.0416 -29.9549
   -29.8233 -29.8228 -29.8223 -29.7745 -29.7744 -29.7742 -29.7205 -29.7205
    14.7080  15.3235  15.3235  15.3235  16.4715  16.4717  16.4719  17.3419
    17.3419  17.5575  17.5598  17.5620  17.6540  17.9314  17.9315  17.9316
    19.1533  19.1534  20.0111  20.0116  20.0121  23.3497  23.3499  23.3500
    28.4663  28.4669  28.4674

          k =-0.3000 0.3000 0.5000 (  4002 PWs)   bands (ev):

   -64.1398 -64.1396 -64.1270 -64.1270 -30.0593 -30.0592 -30.0225 -30.0224
   -29.8160 -29.8159 -29.7639 -29.7639 -29.7481 -29.7480 -29.7476 -29.7471
    14.9713  14.9728  15.2984  15.2984  16.5517  16.5518  17.0346  17.0397
    17.4462  17.4468  17.6848  17.6849  17.8321  17.8361  17.9387  17.9387
    19.7976  19.7983  19.8475  19.8475  20.4557  20.4565  23.8832  23.8832
    27.2987  27.2987  30.3735

          k =-0.5000-0.3000 0.3000 (  4002 PWs)   bands (ev):

   -64.1399 -64.1395 -64.1272 -64.1268 -30.0593 -30.0592 -30.0225 -30.0224
   -29.8160 -29.8159 -29.7641 -29.7638 -29.7482 -29.7480 -29.7474 -29.7473
    14.9719  14.9722  15.2983  15.2985  16.5516  16.5519  17.0369  17.0374
    17.4464  17.4466  17.6849  17.6849  17.8337  17.8344  17.9386  17.9388
    19.7979  19.7981  19.8475  19.8475  20.4560  20.4562  23.8830  23.8835
    27.2986  27.2989  30.3734

          k = 0.5000-0.3000-0.3000 (  4002 PWs)   bands (ev):

   -64.1399 -64.1395 -64.1272 -64.1268 -30.0593 -30.0593 -30.0225 -30.0224
   -29.8160 -29.8159 -29.7641 -29.7638 -29.7482 -29.7480 -29.7474 -29.7473
    14.9719  14.9722  15.2983  15.2985  16.5516  16.5519  17.0369  17.0374
    17.4464  17.4466  17.6848  17.6848  17.8339  17.8345  17.9386  17.9389
    19.7979  19.7980  19.8474  19.8474  20.4561  20.4562  23.8830  23.8835
    27.2986  27.2989  30.3732

          k =-0.3000-0.5000 0.3000 (  4002 PWs)   bands (ev):

   -64.1397 -64.1397 -64.1271 -64.1270 -30.0593 -30.0592 -30.0225 -30.0224
   -29.8160 -29.8160 -29.7640 -29.7639 -29.7481 -29.7480 -29.7474 -29.7474
    14.9720  14.9721  15.2984  15.2984  16.5517  16.5518  17.0371  17.0373
    17.4464  17.4465  17.6848  17.6849  17.8338  17.8342  17.9387  17.9389
    19.7979  19.7980  19.8474  19.8475  20.4561  20.4562  23.8831  23.8833
    27.2987  27.2988  30.3734

          k =-0.3000 0.5000-0.3000 (  4002 PWs)   bands (ev):

   -64.1397 -64.1397 -64.1271 -64.1270 -30.0593 -30.0593 -30.0225 -30.0224
   -29.8160 -29.8159 -29.7640 -29.7639 -29.7481 -29.7480 -29.7474 -29.7474
    14.9720  14.9721  15.2984  15.2984  16.5517  16.5518  17.0371  17.0373
    17.4464  17.4465  17.6849  17.6849  17.8338  17.8342  17.9387  17.9389
    19.7979  19.7980  19.8474  19.8475  20.4561  20.4562  23.8831  23.8833
    27.2987  27.2988  30.3733

          k =-0.5000 0.3000 0.5000 (  4024 PWs)   bands (ev):

   -64.1336 -64.1335 -64.1332 -64.1331 -30.0671 -30.0670 -30.0669 -30.0669
   -29.7710 -29.7709 -29.7706 -29.7705 -29.7415 -29.7413 -29.7411 -29.7411
    14.9263  14.9264  14.9271  14.9275  16.9446  16.9456  16.9467  16.9474
    17.2933  17.2938  17.2948  17.2952  18.6652  18.6662  18.6679  18.6693
    19.6393  19.6402  19.6423  19.6432  21.7957  21.7966  21.7986  21.8001
    28.2958  28.2967  28.2969

          k =-0.5000 0.5000 0.3000 (  4024 PWs)   bands (ev):

   -64.1336 -64.1335 -64.1332 -64.1331 -30.0671 -30.0670 -30.0669 -30.0668
   -29.7711 -29.7709 -29.7706 -29.7704 -29.7415 -29.7413 -29.7412 -29.7410
    14.9262  14.9266  14.9271  14.9275  16.9438  16.9450  16.9471  16.9483
    17.2932  17.2938  17.2948  17.2954  18.6639  18.6657  18.6686  18.6703
    19.6390  19.6402  19.6423  19.6435  21.7945  21.7963  21.7992  21.8010
    28.2955  28.2962  28.2972

     the Fermi energy is    20.0446 ev

!    total energy              =   -2048.11906384 Ry
     Harris-Foulkes estimate   =   -2048.11906230 Ry
     estimated scf accuracy    <       0.00000034 Ry

     total all-electron energy =    -40368.225777 Ry

     The total energy is the sum of the following terms:

     one-electron contribution =    -299.23109521 Ry
     hartree contribution      =     203.66130557 Ry
     xc contribution           =    -123.42026769 Ry
     ewald contribution        =    -808.20155572 Ry
     one-center paw contrib.   =   -1020.93036986 Ry
     smearing contrib. (-TS)   =       0.00291906 Ry

     convergence has been achieved in   8 iterations

     Forces acting on atoms (cartesian axes, Ry/au):

     atom    1 type  1   force =     0.00013584    0.00003297    0.00056908
     atom    2 type  1   force =    -0.00041334    0.00076563    0.00051608
     atom    3 type  1   force =     0.00023350   -0.00010612   -0.00071572
     atom    4 type  1   force =     0.00004400   -0.00069247   -0.00036943

     Total force =     0.001601     Total SCF correction =     0.000506
     SCF correction compared to forces is large: reduce conv_thr to get better values


     Computing stress (Cartesian axis) and pressure

          total   stress  (Ry/bohr**3)                   (kbar)     P=   55.94
   0.00037992   0.00000034   0.00000010         55.89      0.05      0.01
   0.00000034   0.00038066   0.00000050          0.05     56.00      0.07
   0.00000010   0.00000050   0.00038024          0.01      0.07     55.94


     Writing output data file pd_fcc_1.save/
 
     init_run     :      0.64s CPU      0.72s WALL (       1 calls)
     electrons    :     16.90s CPU     17.71s WALL (       1 calls)
     forces       :      0.17s CPU      0.17s WALL (       1 calls)
     stress       :      0.34s CPU      0.34s WALL (       1 calls)

     Called by init_run:
     wfcinit      :      0.47s CPU      0.49s WALL (       1 calls)
     potinit      :      0.08s CPU      0.08s WALL (       1 calls)
     hinit0       :      0.07s CPU      0.08s WALL (       1 calls)

     Called by electrons:
     c_bands      :     14.38s CPU     14.96s WALL (       9 calls)
     sum_band     :      1.95s CPU      2.11s WALL (       9 calls)
     v_of_rho     :      0.05s CPU      0.06s WALL (       9 calls)
     newd         :      0.09s CPU      0.12s WALL (       9 calls)
     PAW_pot      :      0.49s CPU      0.52s WALL (       9 calls)
     mix_rho      :      0.01s CPU      0.01s WALL (       9 calls)

     Called by c_bands:
     init_us_2    :      0.14s CPU      0.14s WALL (    1323 calls)
     cegterg      :     13.69s CPU     14.25s WALL (     567 calls)

     Called by sum_band:
     sum_band:bec :      0.02s CPU      0.02s WALL (     567 calls)
     addusdens    :      0.08s CPU      0.12s WALL (       9 calls)

     Called by *egterg:
     h_psi        :      7.98s CPU      8.50s WALL (    1760 calls)
     s_psi        :      0.20s CPU      0.21s WALL (    1760 calls)
     g_psi        :      0.06s CPU      0.06s WALL (    1130 calls)
     cdiaghg      :      4.28s CPU      4.31s WALL (    1634 calls)

     Called by h_psi:
     h_psi:pot    :      7.93s CPU      8.44s WALL (    1760 calls)
     h_psi:calbec :      0.50s CPU      0.53s WALL (    1760 calls)
     vloc_psi     :      7.20s CPU      7.68s WALL (    1760 calls)
     add_vuspsi   :      0.21s CPU      0.22s WALL (    1760 calls)

     General routines
     calbec       :      0.77s CPU      0.82s WALL (    2642 calls)
     fft          :      0.07s CPU      0.08s WALL (     142 calls)
     ffts         :      0.00s CPU      0.01s WALL (      18 calls)
     fftw         :      8.14s CPU      8.69s WALL (  140199 calls)
     interpolate  :      0.01s CPU      0.01s WALL (       9 calls)
 
     Parallel routines
     fft_scatt_xy :      0.68s CPU      0.72s WALL (  140359 calls)
     fft_scatt_yz :      4.98s CPU      5.34s WALL (  140359 calls)
 
     PWSCF        :    19.34s CPU        20.43s WALL

 
   This run was terminated on:  18:48:27  31Mar2020            

=------------------------------------------------------------------------------=
   JOB DONE.
=------------------------------------------------------------------------------=
