
     Program PWSCF v.6.3 starts on  9Mar2020 at  6:43:53 

     This program is part of the open-source Quantum ESPRESSO suite
     for quantum simulation of materials; please cite
         "P. Giannozzi et al., J. Phys.:Condens. Matter 21 395502 (2009);
         "P. Giannozzi et al., J. Phys.:Condens. Matter 29 465901 (2017);
          URL http://www.quantum-espresso.org", 
     in publications or presentations arising from this work. More details at
     http://www.quantum-espresso.org/quote

     Parallel version (MPI & OpenMP), running on      20 processor cores
     Number of MPI processes:                20
     Threads/MPI process:                     1

     MPI processes distributed on     1 nodes
     R & G space division:  proc/nbgrp/npool/nimage =      20
     Reading input from wd/ecut/file_000003.in
Warning: card &IONS ignored
Warning: card ION_DYNAMICS = 'BFGS', ignored
Warning: card / ignored
Warning: card &CELL ignored
Warning: card CELL_DYNAMICS = 'BFGS', ignored
Warning: card CELL_FACTOR = 2.0, ignored
Warning: card PRESS = 0.0, ignored
Warning: card / ignored

     Current dimensions of program PWSCF are:
     Max number of different atomic species (ntypx) = 10
     Max number of k-points (npk) =  40000
     Max angular momentum in pseudopotentials (lmaxx) =  3
     Message from routine read_upf::
     Pseudo file /rds/homes/b/bxp912/pp/Al.pbe-nl-kjpaw_psl.1.0.0.UPF has been successfully fixed on the fly.
To avoid this message in the future you can permanently fix 
 your pseudo files following instructions given in: 
https://gitlab.com/QEF/q-e/blob/master/upftools/how_to_fix_upf.md
               file Al.pbe-nl-kjpaw_psl.1.0.0.UPF: wavefunction(s)  3S 3P renormalized

     Subspace diagonalization in iterative solution of the eigenvalue problem:
     a serial algorithm will be used

 
     Parallelization info
     --------------------
     sticks:   dense  smooth     PW     G-vecs:    dense   smooth      PW
     Min         129     129     36                 4991     4991     738
     Max         130     130     37                 4996     4996     741
     Sum        2593    2593    733                99873    99873   14795
 


     bravais-lattice index     =            0
     lattice parameter (alat)  =      15.2712  a.u.
     unit-cell volume          =    3561.3897 (a.u.)^3
     number of atoms/cell      =           32
     number of atomic types    =            1
     number of electrons       =        96.00
     number of Kohn-Sham states=           58
     kinetic-energy cutoff     =      35.0000  Ry
     charge density cutoff     =     140.0000  Ry
     convergence threshold     =      1.0E-06
     mixing beta               =       0.1000
     number of iterations used =           10  TF        mixing
     Exchange-correlation      = SLA PW PBX PBC ( 1  4  3  4 0 0)

     celldm(1)=  15.271200  celldm(2)=   0.000000  celldm(3)=   0.000000
     celldm(4)=   0.000000  celldm(5)=   0.000000  celldm(6)=   0.000000

     crystal axes: (cart. coord. in units of alat)
               a(1) = (   1.000000   0.000000   0.000000 )  
               a(2) = (   0.000000   1.000000   0.000000 )  
               a(3) = (   0.000000   0.000000   1.000000 )  

     reciprocal axes: (cart. coord. in units 2 pi/alat)
               b(1) = (  1.000000  0.000000  0.000000 )  
               b(2) = (  0.000000  1.000000  0.000000 )  
               b(3) = (  0.000000  0.000000  1.000000 )  


     PseudoPot. # 1 for Al read from file:
     /rds/homes/b/bxp912/pp/Al.pbe-nl-kjpaw_psl.1.0.0.UPF
     MD5 check sum: 339dbea23cf3ab9a065ad45c0f9085d7
     Pseudo is Projector augmented-wave + core cor, Zval =  3.0
     Generated using "atomic" code by A. Dal Corso v.5.1
     Shape of augmentation charge: PSQ
     Using radial grid of 1135 points,  4 beta functions with: 
                l(1) =   0
                l(2) =   0
                l(3) =   1
                l(4) =   1
     Q(r) pseudized with 0 coefficients 


     atomic species   valence    mass     pseudopotential
        Al             3.00    26.98200     Al( 1.00)

     No symmetry found



   Cartesian axes

     site n.     atom                  positions (alat units)
         1           Al  tau(   1) = (  -0.0000327   0.0000095   0.0000680  )
         2           Al  tau(   2) = (   0.2500796   0.2498100   0.0000703  )
         3           Al  tau(   3) = (   0.2499071   0.0000305   0.2502955  )
         4           Al  tau(   4) = (  -0.0000200   0.2502187   0.2501837  )
         5           Al  tau(   5) = (   0.0002558   0.0002521   0.4998810  )
         6           Al  tau(   6) = (   0.2501194   0.2498326   0.5000036  )
         7           Al  tau(   7) = (   0.2500278   0.0001539   0.7498880  )
         8           Al  tau(   8) = (   0.0000549   0.2501136   0.7502101  )
         9           Al  tau(   9) = (   0.0002375   0.5001078  -0.0000154  )
        10           Al  tau(  10) = (   0.2501396   0.7501762   0.0004054  )
        11           Al  tau(  11) = (   0.2501891   0.5001088   0.2502510  )
        12           Al  tau(  12) = (   0.0000383   0.7500455   0.2500253  )
        13           Al  tau(  13) = (   0.0001102   0.5001562   0.5000990  )
        14           Al  tau(  14) = (   0.2499640   0.7500632   0.4998706  )
        15           Al  tau(  15) = (   0.2503366   0.4997894   0.7496960  )
        16           Al  tau(  16) = (  -0.0003280   0.7497055   0.7499931  )
        17           Al  tau(  17) = (   0.5002037  -0.0001004  -0.0000387  )
        18           Al  tau(  18) = (   0.7499123   0.2500941  -0.0002332  )
        19           Al  tau(  19) = (   0.7496354  -0.0000959   0.2500771  )
        20           Al  tau(  20) = (   0.4999751   0.2499614   0.2498317  )
        21           Al  tau(  21) = (   0.4999211   0.0002929   0.4999726  )
        22           Al  tau(  22) = (   0.7500684   0.2496958   0.4999523  )
        23           Al  tau(  23) = (   0.7500357  -0.0000687   0.7500257  )
        24           Al  tau(  24) = (   0.5000114   0.2498864   0.7499948  )
        25           Al  tau(  25) = (   0.4998526   0.5001156  -0.0002192  )
        26           Al  tau(  26) = (   0.7497723   0.7500978   0.0002736  )
        27           Al  tau(  27) = (   0.7501007   0.4998018   0.2499462  )
        28           Al  tau(  28) = (   0.5000878   0.7497908   0.2502093  )
        29           Al  tau(  29) = (   0.4996761   0.5001027   0.5000404  )
        30           Al  tau(  30) = (   0.7501658   0.7499872   0.4998547  )
        31           Al  tau(  31) = (   0.7499472   0.5000095   0.7501393  )
        32           Al  tau(  32) = (   0.5000142   0.7499486   0.7499177  )

     number of k points=    14  Marzari-Vanderbilt smearing, width (Ry)=  0.0200
                       cart. coord. in units 2pi/alat
        k(    1) = (   0.1666667   0.1666667   0.1666667), wk =   0.1481481
        k(    2) = (   0.1666667   0.1666667  -0.5000000), wk =   0.1481481
        k(    3) = (   0.1666667  -0.5000000  -0.5000000), wk =   0.1481481
        k(    4) = (  -0.5000000  -0.5000000  -0.5000000), wk =   0.0740741
        k(    5) = (  -0.1666667  -0.1666667   0.1666667), wk =   0.1481481
        k(    6) = (  -0.1666667   0.1666667  -0.1666667), wk =   0.1481481
        k(    7) = (   0.1666667  -0.1666667  -0.1666667), wk =   0.1481481
        k(    8) = (  -0.1666667   0.1666667   0.5000000), wk =   0.1481481
        k(    9) = (  -0.5000000  -0.1666667   0.1666667), wk =   0.1481481
        k(   10) = (   0.5000000  -0.1666667  -0.1666667), wk =   0.1481481
        k(   11) = (  -0.1666667  -0.5000000   0.1666667), wk =   0.1481481
        k(   12) = (  -0.1666667   0.5000000  -0.1666667), wk =   0.1481481
        k(   13) = (  -0.5000000   0.1666667   0.5000000), wk =   0.1481481
        k(   14) = (  -0.5000000   0.5000000   0.1666667), wk =   0.1481481

     Dense  grid:    99873 G-vectors     FFT dimensions: (  60,  60,  60)

     Estimated max dynamical RAM per process >      24.98 MB

     Estimated total dynamical RAM >     499.56 MB

     Initial potential from superposition of free atoms

     starting charge   95.92671, renormalised to   96.00000
     Starting wfcs are  128 randomized atomic wfcs
     Checking if some PAW data can be deallocated... 

     total cpu time spent up to now is        2.6 secs

     Self-consistent Calculation

     iteration #  1     ecut=    35.00 Ry     beta= 0.10
     Davidson diagonalization with overlap
     ethr =  1.00E-02,  avg # of iterations =  3.0

     Threshold (ethr) on eigenvalues was too large:
     Diagonalizing with lowered threshold

     Davidson diagonalization with overlap
     ethr =  1.93E-04,  avg # of iterations =  3.6

     total cpu time spent up to now is        7.5 secs

     total energy              =   -1264.10790803 Ry
     Harris-Foulkes estimate   =   -1264.11407945 Ry
     estimated scf accuracy    <       0.18059299 Ry

     iteration #  2     ecut=    35.00 Ry     beta= 0.10
     Davidson diagonalization with overlap
     ethr =  1.88E-04,  avg # of iterations =  1.0

     total cpu time spent up to now is        9.1 secs

     total energy              =   -1264.06092240 Ry
     Harris-Foulkes estimate   =   -1264.10872400 Ry
     estimated scf accuracy    <       0.15685214 Ry

     iteration #  3     ecut=    35.00 Ry     beta= 0.10
     Davidson diagonalization with overlap
     ethr =  1.63E-04,  avg # of iterations =  1.0

     total cpu time spent up to now is       10.6 secs

     total energy              =   -1264.06387738 Ry
     Harris-Foulkes estimate   =   -1264.06398132 Ry
     estimated scf accuracy    <       0.00062861 Ry

     iteration #  4     ecut=    35.00 Ry     beta= 0.10
     Davidson diagonalization with overlap
     ethr =  6.55E-07,  avg # of iterations =  4.9

     total cpu time spent up to now is       13.9 secs

     total energy              =   -1264.06447524 Ry
     Harris-Foulkes estimate   =   -1264.06465476 Ry
     estimated scf accuracy    <       0.00034902 Ry

     iteration #  5     ecut=    35.00 Ry     beta= 0.10
     Davidson diagonalization with overlap
     ethr =  3.64E-07,  avg # of iterations =  1.0

     total cpu time spent up to now is       16.1 secs

     total energy              =   -1264.06428185 Ry
     Harris-Foulkes estimate   =   -1264.06448534 Ry
     estimated scf accuracy    <       0.00022812 Ry

     iteration #  6     ecut=    35.00 Ry     beta= 0.10
     Davidson diagonalization with overlap
     ethr =  2.38E-07,  avg # of iterations =  2.0

     total cpu time spent up to now is       18.5 secs

     total energy              =   -1264.06434529 Ry
     Harris-Foulkes estimate   =   -1264.06434620 Ry
     estimated scf accuracy    <       0.00001414 Ry

     iteration #  7     ecut=    35.00 Ry     beta= 0.10
     Davidson diagonalization with overlap
     ethr =  1.47E-08,  avg # of iterations =  2.4

     total cpu time spent up to now is       20.3 secs

     total energy              =   -1264.06433702 Ry
     Harris-Foulkes estimate   =   -1264.06434619 Ry
     estimated scf accuracy    <       0.00000579 Ry

     iteration #  8     ecut=    35.00 Ry     beta= 0.10
     Davidson diagonalization with overlap
     ethr =  6.03E-09,  avg # of iterations =  2.5

     total cpu time spent up to now is       22.5 secs

     total energy              =   -1264.06433819 Ry
     Harris-Foulkes estimate   =   -1264.06433778 Ry
     estimated scf accuracy    <       0.00000123 Ry

     iteration #  9     ecut=    35.00 Ry     beta= 0.10
     Davidson diagonalization with overlap
     ethr =  1.28E-09,  avg # of iterations =  1.9

     total cpu time spent up to now is       24.1 secs

     End of self-consistent calculation

          k = 0.1667 0.1667 0.1667 ( 12485 PWs)   bands (ev):

    -3.0434  -1.5443  -1.5419  -1.5388  -0.0595  -0.0587  -0.0565  -0.0553
    -0.0540  -0.0504   1.4109   1.4121   1.4143   1.4155   1.4166   1.4173
     1.4194   2.8651   2.8669   2.8682   2.8689   2.8708   2.8734   4.2329
     4.2336   4.2344   4.3300   4.3307   4.3315   5.6415   5.6418   5.6448
     5.6455   5.6469   5.6482   5.7581   7.0589   7.0593   7.0610   7.0627
     7.0636   7.0645   7.0724   7.0749   7.0781   7.4047   7.4055   7.4063
     8.4762   8.4768   8.4784   8.4798   8.4811   8.4816   8.8162   8.8166
     8.8186   8.8207

          k = 0.1667 0.1667-0.5000 ( 12424 PWs)   bands (ev):

    -2.5423  -2.5398  -1.0463  -1.0455  -1.0440  -1.0423   0.4324   0.4343
     0.4359   0.4370   0.4386   0.4392   1.8947   1.8959   1.9005   1.9012
     1.9031   1.9038   3.3436   3.3446   3.3451   3.3453   3.3476   3.3496
     4.7050   4.7055   4.7075   4.7083   4.7717   4.7729   4.7730   4.7741
     4.8022   4.8034   6.1386   6.1393   6.1409   6.1427   6.2228   6.2233
     6.2241   6.2250   7.5389   7.5395   7.5412   7.5429   7.6402   7.6415
     7.8539   7.8546   7.8563   7.8573   8.9776   8.9779   8.9791   8.9798
     9.3383   9.3390

          k = 0.1667-0.5000-0.5000 ( 12456 PWs)   bands (ev):

    -2.0428  -2.0418  -2.0394  -2.0380  -0.5514  -0.5504  -0.5479  -0.5466
     0.9240   0.9251   0.9275   0.9289   2.3765   2.3779   2.3786   2.3795
     2.3804   2.3825   2.3835   2.3842   3.8161   3.8176   3.8183   3.8193
     3.8201   3.8223   3.8233   3.8240   5.1713   5.1724   5.1750   5.1765
     5.2749   5.2763   5.2769   5.2779   5.2790   5.2810   5.2821   5.2827
     6.6674   6.6679   6.6692   6.6699   8.0988   8.0993   8.1005   8.1013
     8.4096   8.4105   8.4126   8.4138   9.3872   9.3884   9.3899   9.3913
     9.3940   9.3954

          k =-0.5000-0.5000-0.5000 ( 12568 PWs)   bands (ev):

    -1.5464  -1.5456  -1.5430  -1.5424  -1.5412  -1.5393  -1.5389  -1.5362
     2.8557   2.8561   2.8574   2.8580   2.8592   2.8602   2.8604   2.8614
     2.8616   2.8623   2.8626   2.8632   2.8636   2.8639   2.8646   2.8647
     2.8656   2.8665   2.8671   2.8673   2.8681   2.8697   2.8711   2.8732
     7.1480   7.1490   7.1497   7.1503   7.1515   7.1521   7.1525   7.1528
     7.1529   7.1536   7.1548   7.1553   7.1560   7.1562   7.1565   7.1572
     7.1576   7.1583   7.1587   7.1589   7.1600   7.1606   7.1623   7.1625
    11.3527  11.5680

          k =-0.1667-0.1667 0.1667 ( 12485 PWs)   bands (ev):

    -3.0434  -1.5438  -1.5419  -1.5394  -0.0593  -0.0579  -0.0566  -0.0552
    -0.0528  -0.0525   1.4104   1.4136   1.4140   1.4150   1.4163   1.4172
     1.4195   2.8660   2.8670   2.8677   2.8690   2.8706   2.8731   4.2332
     4.2337   4.2341   4.3303   4.3307   4.3312   5.6406   5.6436   5.6441
     5.6452   5.6469   5.6483   5.7581   7.0590   7.0604   7.0613   7.0622
     7.0631   7.0640   7.0729   7.0750   7.0775   7.4050   7.4055   7.4060
     8.4765   8.4777   8.4787   8.4794   8.4801   8.4815   8.8156   8.8169
     8.8183   8.8203

          k =-0.1667 0.1667-0.1667 ( 12485 PWs)   bands (ev):

    -3.0434  -1.5443  -1.5417  -1.5390  -0.0597  -0.0583  -0.0561  -0.0550
    -0.0535  -0.0519   1.4114   1.4121   1.4137   1.4148   1.4168   1.4180
     1.4193   2.8663   2.8667   2.8675   2.8689   2.8710   2.8730   4.2329
     4.2336   4.2344   4.3299   4.3307   4.3316   5.6417   5.6423   5.6435
     5.6448   5.6474   5.6490   5.7581   7.0591   7.0600   7.0607   7.0625
     7.0636   7.0645   7.0725   7.0750   7.0777   7.4047   7.4055   7.4063
     8.4764   8.4772   8.4780   8.4800   8.4807   8.4817   8.8159   8.8174
     8.8191   8.8200

          k = 0.1667-0.1667-0.1667 ( 12485 PWs)   bands (ev):

    -3.0434  -1.5439  -1.5423  -1.5388  -0.0597  -0.0580  -0.0565  -0.0559
    -0.0546  -0.0497   1.4115   1.4121   1.4131   1.4151   1.4161   1.4169
     1.4211   2.8653   2.8664   2.8676   2.8694   2.8704   2.8743   4.2328
     4.2337   4.2345   4.3298   4.3307   4.3317   5.6414   5.6425   5.6439
     5.6452   5.6466   5.6491   5.7581   7.0586   7.0601   7.0606   7.0624
     7.0629   7.0647   7.0732   7.0747   7.0781   7.4046   7.4055   7.4064
     8.4758   8.4776   8.4782   8.4800   8.4805   8.4818   8.8161   8.8167
     8.8185   8.8199

          k =-0.1667 0.1667 0.5000 ( 12424 PWs)   bands (ev):

    -2.5423  -2.5398  -1.0469  -1.0449  -1.0444  -1.0420   0.4327   0.4337
     0.4355   0.4370   0.4385   0.4399   1.8944   1.8957   1.9004   1.9016
     1.9028   1.9042   3.3433   3.3444   3.3451   3.3463   3.3473   3.3493
     4.7046   4.7059   4.7072   4.7085   4.7713   4.7725   4.7733   4.7745
     4.8022   4.8034   6.1379   6.1400   6.1405   6.1430   6.2223   6.2235
     6.2241   6.2252   7.5387   7.5398   7.5413   7.5427   7.6402   7.6415
     7.8534   7.8551   7.8560   7.8576   8.9773   8.9782   8.9790   8.9799
     9.3373   9.3393

          k =-0.5000-0.1667 0.1667 ( 12424 PWs)   bands (ev):

    -2.5424  -2.5397  -1.0475  -1.0447  -1.0439  -1.0421   0.4328   0.4347
     0.4356   0.4370   0.4380   0.4393   1.8946   1.8956   1.9006   1.9011
     1.9029   1.9042   3.3431   3.3443   3.3454   3.3466   3.3471   3.3493
     4.7050   4.7053   4.7073   4.7087   4.7711   4.7724   4.7735   4.7747
     4.8020   4.8034   6.1373   6.1402   6.1411   6.1429   6.2226   6.2233
     6.2237   6.2254   7.5382   7.5399   7.5417   7.5427   7.6401   7.6415
     7.8539   7.8544   7.8560   7.8578   8.9771   8.9783   8.9786   8.9805
     9.3373   9.3388

          k = 0.5000-0.1667-0.1667 ( 12424 PWs)   bands (ev):

    -2.5424  -2.5397  -1.0478  -1.0446  -1.0439  -1.0418   0.4316   0.4344
     0.4353   0.4370   0.4379   0.4412   1.8947   1.8955   1.9001   1.9016
     1.9032   1.9041   3.3425   3.3438   3.3455   3.3465   3.3476   3.3499
     4.7046   4.7057   4.7074   4.7085   4.7705   4.7719   4.7740   4.7751
     4.8022   4.8036   6.1370   6.1403   6.1410   6.1432   6.2223   6.2235
     6.2241   6.2252   7.5384   7.5397   7.5409   7.5434   7.6401   7.6415
     7.8534   7.8549   7.8562   7.8576   8.9772   8.9781   8.9792   8.9799
     9.3365   9.3387

          k =-0.1667-0.5000 0.1667 ( 12424 PWs)   bands (ev):

    -2.5413  -2.5408  -1.0467  -1.0462  -1.0434  -1.0418   0.4331   0.4338
     0.4357   0.4361   0.4383   0.4404   1.8948   1.8954   1.9017   1.9019
     1.9024   1.9029   3.3429   3.3432   3.3464   3.3468   3.3479   3.3486
     4.7062   4.7063   4.7068   4.7069   4.7710   4.7712   4.7745   4.7750
     4.8026   4.8030   6.1381   6.1387   6.1415   6.1432   6.2235   6.2236
     6.2239   6.2241   7.5390   7.5402   7.5414   7.5419   7.6406   7.6410
     7.8551   7.8552   7.8558   7.8559   8.9783   8.9783   8.9789   8.9789
     9.3376   9.3394

          k =-0.1667 0.5000-0.1667 ( 12424 PWs)   bands (ev):

    -2.5413  -2.5408  -1.0470  -1.0464  -1.0428  -1.0419   0.4331   0.4340
     0.4361   0.4369   0.4378   0.4395   1.8947   1.8953   1.9018   1.9021
     1.9022   1.9031   3.3425   3.3429   3.3464   3.3469   3.3484   3.3487
     4.7062   4.7063   4.7063   4.7075   4.7706   4.7709   4.7750   4.7753
     4.8025   4.8029   6.1379   6.1385   6.1421   6.1431   6.2232   6.2236
     6.2236   6.2247   7.5393   7.5398   7.5413   7.5421   7.6406   7.6410
     7.8550   7.8552   7.8553   7.8566   8.9780   8.9782   8.9787   8.9796
     9.3379   9.3392

          k =-0.5000 0.1667 0.5000 ( 12456 PWs)   bands (ev):

    -2.0442  -2.0415  -2.0392  -2.0370  -0.5528  -0.5501  -0.5478  -0.5455
     0.9226   0.9253   0.9276   0.9299   2.3761   2.3767   2.3782   2.3805
     2.3815   2.3819   2.3831   2.3851   3.8157   3.8164   3.8179   3.8203
     3.8213   3.8216   3.8229   3.8248   5.1698   5.1726   5.1752   5.1775
     5.2744   5.2752   5.2765   5.2789   5.2799   5.2805   5.2816   5.2837
     6.6667   6.6680   6.6693   6.6704   8.0980   8.0995   8.1006   8.1018
     8.4083   8.4108   8.4126   8.4148   9.3872   9.3884   9.3898   9.3925
     9.3932   9.3950

          k =-0.5000 0.5000 0.1667 ( 12456 PWs)   bands (ev):

    -2.0426  -2.0415  -2.0390  -2.0389  -0.5512  -0.5501  -0.5476  -0.5474
     0.9242   0.9253   0.9279   0.9280   2.3766   2.3780   2.3785   2.3800
     2.3807   2.3823   2.3832   2.3838   3.8163   3.8177   3.8182   3.8198
     3.8204   3.8220   3.8230   3.8236   5.1716   5.1727   5.1753   5.1755
     5.2751   5.2763   5.2771   5.2784   5.2792   5.2809   5.2815   5.2823
     6.6675   6.6681   6.6693   6.6695   8.0988   8.0995   8.1008   8.1009
     8.4097   8.4107   8.4130   8.4131   9.3870   9.3892   9.3899   9.3916
     9.3936   9.3948

     the Fermi energy is     7.8158 ev

!    total energy              =   -1264.06433789 Ry
     Harris-Foulkes estimate   =   -1264.06433826 Ry
     estimated scf accuracy    <       0.00000028 Ry

     total all-electron energy =    -15540.633360 Ry

     The total energy is the sum of the following terms:

     one-electron contribution =     101.26089941 Ry
     hartree contribution      =       0.20239624 Ry
     xc contribution           =     -82.91819698 Ry
     ewald contribution        =    -172.93188273 Ry
     one-center paw contrib.   =   -1109.68022279 Ry
     smearing contrib. (-TS)   =       0.00266895 Ry

     convergence has been achieved in   9 iterations

     Forces acting on atoms (cartesian axes, Ry/au):

     atom    1 type  1   force =    -0.00000617    0.00000326    0.00001835
     atom    2 type  1   force =    -0.00009077    0.00021995    0.00008247
     atom    3 type  1   force =     0.00022467   -0.00003217   -0.00051675
     atom    4 type  1   force =    -0.00005713   -0.00016005   -0.00034910
     atom    5 type  1   force =    -0.00043890   -0.00039640    0.00032244
     atom    6 type  1   force =    -0.00014954    0.00043526    0.00000486
     atom    7 type  1   force =    -0.00014941   -0.00055337    0.00032701
     atom    8 type  1   force =     0.00001834   -0.00007441   -0.00025880
     atom    9 type  1   force =     0.00000856   -0.00007593    0.00011636
     atom   10 type  1   force =    -0.00016572   -0.00009215   -0.00068862
     atom   11 type  1   force =    -0.00024572   -0.00025513   -0.00039599
     atom   12 type  1   force =    -0.00008717    0.00002621   -0.00006893
     atom   13 type  1   force =    -0.00019707   -0.00033035   -0.00002549
     atom   14 type  1   force =    -0.00003028    0.00014731    0.00042584
     atom   15 type  1   force =    -0.00050888    0.00032577    0.00051883
     atom   16 type  1   force =     0.00062696    0.00048810    0.00013950
     atom   17 type  1   force =    -0.00044346    0.00002145    0.00010045
     atom   18 type  1   force =     0.00020769   -0.00003950    0.00042399
     atom   19 type  1   force =     0.00052446    0.00023446   -0.00009096
     atom   20 type  1   force =     0.00007200    0.00021456    0.00006331
     atom   21 type  1   force =     0.00019269   -0.00054492    0.00011647
     atom   22 type  1   force =    -0.00014478    0.00059617    0.00012921
     atom   23 type  1   force =     0.00011751   -0.00010711   -0.00022262
     atom   24 type  1   force =     0.00013180    0.00013861   -0.00008879
     atom   25 type  1   force =     0.00010786   -0.00016311    0.00033747
     atom   26 type  1   force =     0.00031163   -0.00023456   -0.00024580
     atom   27 type  1   force =    -0.00015799    0.00001837    0.00011148
     atom   28 type  1   force =    -0.00008888    0.00024031   -0.00006579
     atom   29 type  1   force =     0.00083693   -0.00033580   -0.00009257
     atom   30 type  1   force =    -0.00025839    0.00003609    0.00025205
     atom   31 type  1   force =    -0.00008561   -0.00004243   -0.00034720
     atom   32 type  1   force =    -0.00007525    0.00029148   -0.00003266

     Total force =     0.002739     Total SCF correction =     0.000498
     SCF correction compared to forces is large: reduce conv_thr to get better values


     Computing stress (Cartesian axis) and pressure

          total   stress  (Ry/bohr**3)                   (kbar)     P=   -1.15
  -0.00000785  -0.00000001   0.00000000         -1.15     -0.00      0.00
  -0.00000001  -0.00000785   0.00000000         -0.00     -1.15      0.00
   0.00000000   0.00000000  -0.00000785          0.00      0.00     -1.15


     Writing output data file fe_scf_fcc_2.save/
 
     init_run     :      1.88s CPU      2.03s WALL (       1 calls)
     electrons    :     20.86s CPU     21.55s WALL (       1 calls)
     forces       :      0.32s CPU      0.33s WALL (       1 calls)
     stress       :      0.83s CPU      0.83s WALL (       1 calls)

     Called by init_run:
     wfcinit      :      1.66s CPU      1.78s WALL (       1 calls)
     potinit      :      0.08s CPU      0.09s WALL (       1 calls)
     hinit0       :      0.11s CPU      0.13s WALL (       1 calls)

     Called by electrons:
     c_bands      :     17.75s CPU     18.31s WALL (      10 calls)
     sum_band     :      2.39s CPU      2.50s WALL (      10 calls)
     v_of_rho     :      0.07s CPU      0.08s WALL (      10 calls)
     newd         :      0.07s CPU      0.07s WALL (      10 calls)
     PAW_pot      :      0.64s CPU      0.64s WALL (      10 calls)
     mix_rho      :      0.02s CPU      0.02s WALL (      10 calls)

     Called by c_bands:
     init_us_2    :      0.37s CPU      0.38s WALL (     322 calls)
     cegterg      :     16.80s CPU     17.33s WALL (     140 calls)

     Called by sum_band:
     sum_band:bec :      0.02s CPU      0.02s WALL (     140 calls)
     addusdens    :      0.05s CPU      0.06s WALL (      10 calls)

     Called by *egterg:
     h_psi        :     12.21s CPU     12.73s WALL (     479 calls)
     s_psi        :      1.05s CPU      1.06s WALL (     479 calls)
     g_psi        :      0.06s CPU      0.06s WALL (     325 calls)
     cdiaghg      :      2.67s CPU      2.69s WALL (     451 calls)

     Called by h_psi:
     h_psi:pot    :     12.15s CPU     12.68s WALL (     479 calls)
     h_psi:calbec :      1.22s CPU      1.33s WALL (     479 calls)
     vloc_psi     :      9.88s CPU     10.24s WALL (     479 calls)
     add_vuspsi   :      1.05s CPU      1.11s WALL (     479 calls)

     General routines
     calbec       :      1.89s CPU      2.05s WALL (     689 calls)
     fft          :      0.18s CPU      0.20s WALL (     137 calls)
     ffts         :      0.01s CPU      0.01s WALL (      10 calls)
     fftw         :     10.82s CPU     11.22s WALL (   53232 calls)
 
     Parallel routines
     fft_scatt_xy :      0.82s CPU      0.86s WALL (   53379 calls)
     fft_scatt_yz :      5.85s CPU      6.07s WALL (   53379 calls)
 
     PWSCF        :    24.63s CPU        25.99s WALL

 
   This run was terminated on:   6:44:19   9Mar2020            

=------------------------------------------------------------------------------=
   JOB DONE.
=------------------------------------------------------------------------------=
