
     Program PWSCF v.6.3 starts on 12Mar2020 at  0:58:47 

     This program is part of the open-source Quantum ESPRESSO suite
     for quantum simulation of materials; please cite
         "P. Giannozzi et al., J. Phys.:Condens. Matter 21 395502 (2009);
         "P. Giannozzi et al., J. Phys.:Condens. Matter 29 465901 (2017);
          URL http://www.quantum-espresso.org", 
     in publications or presentations arising from this work. More details at
     http://www.quantum-espresso.org/quote

     Parallel version (MPI & OpenMP), running on      20 processor cores
     Number of MPI processes:                20
     Threads/MPI process:                     1

     MPI processes distributed on     1 nodes
     R & G space division:  proc/nbgrp/npool/nimage =      20
     Reading input from wd/ecut/file_000042.in
Warning: card &IONS ignored
Warning: card ION_DYNAMICS = 'BFGS', ignored
Warning: card / ignored
Warning: card &CELL ignored
Warning: card CELL_DYNAMICS = 'BFGS', ignored
Warning: card CELL_FACTOR = 2.0, ignored
Warning: card PRESS = 0.0, ignored
Warning: card / ignored

     Current dimensions of program PWSCF are:
     Max number of different atomic species (ntypx) = 10
     Max number of k-points (npk) =  40000
     Max angular momentum in pseudopotentials (lmaxx) =  3
     Message from routine read_upf::
     Pseudo file /rds/homes/b/bxp912/pp/Al.pbe-nl-kjpaw_psl.1.0.0.UPF has been successfully fixed on the fly.
To avoid this message in the future you can permanently fix 
 your pseudo files following instructions given in: 
https://gitlab.com/QEF/q-e/blob/master/upftools/how_to_fix_upf.md
               file Al.pbe-nl-kjpaw_psl.1.0.0.UPF: wavefunction(s)  3S 3P renormalized

     Subspace diagonalization in iterative solution of the eigenvalue problem:
     a serial algorithm will be used

 
     Parallelization info
     --------------------
     sticks:   dense  smooth     PW     G-vecs:    dense   smooth      PW
     Min          97      97     38                 3229     3229     796
     Max          98      98     39                 3232     3232     800
     Sum        1941    1941    769                64589    64589   15967
 


     bravais-lattice index     =            0
     lattice parameter (alat)  =      15.2712  a.u.
     unit-cell volume          =    3561.3897 (a.u.)^3
     number of atoms/cell      =           32
     number of atomic types    =            1
     number of electrons       =        96.00
     number of Kohn-Sham states=           58
     kinetic-energy cutoff     =      37.0000  Ry
     charge density cutoff     =     105.0000  Ry
     convergence threshold     =      1.0E-06
     mixing beta               =       0.1000
     number of iterations used =           10  TF        mixing
     Exchange-correlation      = SLA PW PBX PBC ( 1  4  3  4 0 0)

     celldm(1)=  15.271200  celldm(2)=   0.000000  celldm(3)=   0.000000
     celldm(4)=   0.000000  celldm(5)=   0.000000  celldm(6)=   0.000000

     crystal axes: (cart. coord. in units of alat)
               a(1) = (   1.000000   0.000000   0.000000 )  
               a(2) = (   0.000000   1.000000   0.000000 )  
               a(3) = (   0.000000   0.000000   1.000000 )  

     reciprocal axes: (cart. coord. in units 2 pi/alat)
               b(1) = (  1.000000  0.000000  0.000000 )  
               b(2) = (  0.000000  1.000000  0.000000 )  
               b(3) = (  0.000000  0.000000  1.000000 )  


     PseudoPot. # 1 for Al read from file:
     /rds/homes/b/bxp912/pp/Al.pbe-nl-kjpaw_psl.1.0.0.UPF
     MD5 check sum: 339dbea23cf3ab9a065ad45c0f9085d7
     Pseudo is Projector augmented-wave + core cor, Zval =  3.0
     Generated using "atomic" code by A. Dal Corso v.5.1
     Shape of augmentation charge: PSQ
     Using radial grid of 1135 points,  4 beta functions with: 
                l(1) =   0
                l(2) =   0
                l(3) =   1
                l(4) =   1
     Q(r) pseudized with 0 coefficients 


     atomic species   valence    mass     pseudopotential
        Al             3.00    26.98200     Al( 1.00)

     No symmetry found



   Cartesian axes

     site n.     atom                  positions (alat units)
         1           Al  tau(   1) = (  -0.0000327   0.0000095   0.0000680  )
         2           Al  tau(   2) = (   0.2500796   0.2498100   0.0000703  )
         3           Al  tau(   3) = (   0.2499071   0.0000305   0.2502955  )
         4           Al  tau(   4) = (  -0.0000200   0.2502187   0.2501837  )
         5           Al  tau(   5) = (   0.0002558   0.0002521   0.4998810  )
         6           Al  tau(   6) = (   0.2501194   0.2498326   0.5000036  )
         7           Al  tau(   7) = (   0.2500278   0.0001539   0.7498880  )
         8           Al  tau(   8) = (   0.0000549   0.2501136   0.7502101  )
         9           Al  tau(   9) = (   0.0002375   0.5001078  -0.0000154  )
        10           Al  tau(  10) = (   0.2501396   0.7501762   0.0004054  )
        11           Al  tau(  11) = (   0.2501891   0.5001088   0.2502510  )
        12           Al  tau(  12) = (   0.0000383   0.7500455   0.2500253  )
        13           Al  tau(  13) = (   0.0001102   0.5001562   0.5000990  )
        14           Al  tau(  14) = (   0.2499640   0.7500632   0.4998706  )
        15           Al  tau(  15) = (   0.2503366   0.4997894   0.7496960  )
        16           Al  tau(  16) = (  -0.0003280   0.7497055   0.7499931  )
        17           Al  tau(  17) = (   0.5002037  -0.0001004  -0.0000387  )
        18           Al  tau(  18) = (   0.7499123   0.2500941  -0.0002332  )
        19           Al  tau(  19) = (   0.7496354  -0.0000959   0.2500771  )
        20           Al  tau(  20) = (   0.4999751   0.2499614   0.2498317  )
        21           Al  tau(  21) = (   0.4999211   0.0002929   0.4999726  )
        22           Al  tau(  22) = (   0.7500684   0.2496958   0.4999523  )
        23           Al  tau(  23) = (   0.7500357  -0.0000687   0.7500257  )
        24           Al  tau(  24) = (   0.5000114   0.2498864   0.7499948  )
        25           Al  tau(  25) = (   0.4998526   0.5001156  -0.0002192  )
        26           Al  tau(  26) = (   0.7497723   0.7500978   0.0002736  )
        27           Al  tau(  27) = (   0.7501007   0.4998018   0.2499462  )
        28           Al  tau(  28) = (   0.5000878   0.7497908   0.2502093  )
        29           Al  tau(  29) = (   0.4996761   0.5001027   0.5000404  )
        30           Al  tau(  30) = (   0.7501658   0.7499872   0.4998547  )
        31           Al  tau(  31) = (   0.7499472   0.5000095   0.7501393  )
        32           Al  tau(  32) = (   0.5000142   0.7499486   0.7499177  )

     number of k points=    14  Marzari-Vanderbilt smearing, width (Ry)=  0.0200
                       cart. coord. in units 2pi/alat
        k(    1) = (   0.1666667   0.1666667   0.1666667), wk =   0.1481481
        k(    2) = (   0.1666667   0.1666667  -0.5000000), wk =   0.1481481
        k(    3) = (   0.1666667  -0.5000000  -0.5000000), wk =   0.1481481
        k(    4) = (  -0.5000000  -0.5000000  -0.5000000), wk =   0.0740741
        k(    5) = (  -0.1666667  -0.1666667   0.1666667), wk =   0.1481481
        k(    6) = (  -0.1666667   0.1666667  -0.1666667), wk =   0.1481481
        k(    7) = (   0.1666667  -0.1666667  -0.1666667), wk =   0.1481481
        k(    8) = (  -0.1666667   0.1666667   0.5000000), wk =   0.1481481
        k(    9) = (  -0.5000000  -0.1666667   0.1666667), wk =   0.1481481
        k(   10) = (   0.5000000  -0.1666667  -0.1666667), wk =   0.1481481
        k(   11) = (  -0.1666667  -0.5000000   0.1666667), wk =   0.1481481
        k(   12) = (  -0.1666667   0.5000000  -0.1666667), wk =   0.1481481
        k(   13) = (  -0.5000000   0.1666667   0.5000000), wk =   0.1481481
        k(   14) = (  -0.5000000   0.5000000   0.1666667), wk =   0.1481481

     Dense  grid:    64589 G-vectors     FFT dimensions: (  50,  50,  50)

     Estimated max dynamical RAM per process >      24.11 MB

     Estimated total dynamical RAM >     482.21 MB

     Initial potential from superposition of free atoms

     starting charge   95.92671, renormalised to   96.00000
     Starting wfcs are  128 randomized atomic wfcs
     Checking if some PAW data can be deallocated... 

     total cpu time spent up to now is        2.6 secs

     Self-consistent Calculation

     iteration #  1     ecut=    37.00 Ry     beta= 0.10
     Davidson diagonalization with overlap
     ethr =  1.00E-02,  avg # of iterations =  3.0

     Threshold (ethr) on eigenvalues was too large:
     Diagonalizing with lowered threshold

     Davidson diagonalization with overlap
     ethr =  1.93E-04,  avg # of iterations =  3.6

     total cpu time spent up to now is        8.4 secs

     total energy              =   -1264.10840893 Ry
     Harris-Foulkes estimate   =   -1264.11458116 Ry
     estimated scf accuracy    <       0.18066593 Ry

     iteration #  2     ecut=    37.00 Ry     beta= 0.10
     Davidson diagonalization with overlap
     ethr =  1.88E-04,  avg # of iterations =  1.0

     total cpu time spent up to now is       10.3 secs

     total energy              =   -1264.06141527 Ry
     Harris-Foulkes estimate   =   -1264.10920503 Ry
     estimated scf accuracy    <       0.15689442 Ry

     iteration #  3     ecut=    37.00 Ry     beta= 0.10
     Davidson diagonalization with overlap
     ethr =  1.63E-04,  avg # of iterations =  1.0

     total cpu time spent up to now is       12.1 secs

     total energy              =   -1264.06435938 Ry
     Harris-Foulkes estimate   =   -1264.06446809 Ry
     estimated scf accuracy    <       0.00062413 Ry

     iteration #  4     ecut=    37.00 Ry     beta= 0.10
     Davidson diagonalization with overlap
     ethr =  6.50E-07,  avg # of iterations =  4.9

     total cpu time spent up to now is       16.1 secs

     total energy              =   -1264.06496765 Ry
     Harris-Foulkes estimate   =   -1264.06513925 Ry
     estimated scf accuracy    <       0.00034912 Ry

     iteration #  5     ecut=    37.00 Ry     beta= 0.10
     Davidson diagonalization with overlap
     ethr =  3.64E-07,  avg # of iterations =  1.0

     total cpu time spent up to now is       17.9 secs

     total energy              =   -1264.06476920 Ry
     Harris-Foulkes estimate   =   -1264.06497744 Ry
     estimated scf accuracy    <       0.00023093 Ry

     iteration #  6     ecut=    37.00 Ry     beta= 0.10
     Davidson diagonalization with overlap
     ethr =  2.41E-07,  avg # of iterations =  2.0

     total cpu time spent up to now is       20.5 secs

     total energy              =   -1264.06483414 Ry
     Harris-Foulkes estimate   =   -1264.06483443 Ry
     estimated scf accuracy    <       0.00001457 Ry

     iteration #  7     ecut=    37.00 Ry     beta= 0.10
     Davidson diagonalization with overlap
     ethr =  1.52E-08,  avg # of iterations =  2.3

     total cpu time spent up to now is       22.6 secs

     total energy              =   -1264.06482582 Ry
     Harris-Foulkes estimate   =   -1264.06483505 Ry
     estimated scf accuracy    <       0.00000578 Ry

     iteration #  8     ecut=    37.00 Ry     beta= 0.10
     Davidson diagonalization with overlap
     ethr =  6.02E-09,  avg # of iterations =  2.4

     total cpu time spent up to now is       24.9 secs

     total energy              =   -1264.06482698 Ry
     Harris-Foulkes estimate   =   -1264.06482663 Ry
     estimated scf accuracy    <       0.00000113 Ry

     iteration #  9     ecut=    37.00 Ry     beta= 0.10
     Davidson diagonalization with overlap
     ethr =  1.18E-09,  avg # of iterations =  1.9

     total cpu time spent up to now is       27.0 secs

     End of self-consistent calculation

          k = 0.1667 0.1667 0.1667 ( 13514 PWs)   bands (ev):

    -3.0436  -1.5445  -1.5420  -1.5390  -0.0596  -0.0588  -0.0566  -0.0555
    -0.0541  -0.0505   1.4108   1.4120   1.4142   1.4154   1.4164   1.4171
     1.4193   2.8650   2.8668   2.8681   2.8688   2.8707   2.8733   4.2328
     4.2335   4.2342   4.3298   4.3306   4.3314   5.6414   5.6417   5.6447
     5.6454   5.6468   5.6481   5.7580   7.0588   7.0592   7.0608   7.0626
     7.0635   7.0643   7.0723   7.0748   7.0780   7.4045   7.4052   7.4060
     8.4760   8.4766   8.4782   8.4796   8.4809   8.4815   8.8155   8.8161
     8.8175   8.8195

          k = 0.1667 0.1667-0.5000 ( 13552 PWs)   bands (ev):

    -2.5425  -2.5400  -1.0464  -1.0457  -1.0441  -1.0425   0.4323   0.4342
     0.4358   0.4368   0.4384   0.4391   1.8945   1.8958   1.9004   1.9011
     1.9029   1.9037   3.3435   3.3445   3.3450   3.3452   3.3475   3.3495
     4.7049   4.7054   4.7073   4.7081   4.7715   4.7728   4.7729   4.7740
     4.8020   4.8032   6.1384   6.1392   6.1408   6.1425   6.2226   6.2231
     6.2239   6.2248   7.5387   7.5393   7.5411   7.5427   7.6400   7.6413
     7.8536   7.8543   7.8560   7.8570   8.9774   8.9776   8.9788   8.9796
     9.3370   9.3378

          k = 0.1667-0.5000-0.5000 ( 13572 PWs)   bands (ev):

    -2.0429  -2.0419  -2.0395  -2.0382  -0.5515  -0.5505  -0.5481  -0.5467
     0.9239   0.9249   0.9274   0.9287   2.3764   2.3777   2.3784   2.3794
     2.3803   2.3824   2.3834   2.3841   3.8160   3.8175   3.8182   3.8192
     3.8200   3.8222   3.8232   3.8239   5.1712   5.1723   5.1749   5.1763
     5.2748   5.2761   5.2768   5.2777   5.2788   5.2808   5.2819   5.2825
     6.6672   6.6677   6.6690   6.6697   8.0985   8.0991   8.1003   8.1011
     8.4093   8.4102   8.4123   8.4135   9.3867   9.3887   9.3902   9.3919
     9.3939   9.3948

          k =-0.5000-0.5000-0.5000 ( 13416 PWs)   bands (ev):

    -1.5466  -1.5458  -1.5431  -1.5425  -1.5414  -1.5394  -1.5390  -1.5364
     2.8556   2.8560   2.8573   2.8579   2.8591   2.8601   2.8603   2.8613
     2.8615   2.8622   2.8625   2.8631   2.8635   2.8638   2.8645   2.8646
     2.8655   2.8664   2.8670   2.8672   2.8680   2.8696   2.8710   2.8731
     7.1479   7.1489   7.1496   7.1501   7.1513   7.1519   7.1524   7.1527
     7.1528   7.1535   7.1547   7.1552   7.1559   7.1561   7.1564   7.1570
     7.1575   7.1582   7.1586   7.1588   7.1598   7.1605   7.1622   7.1624
    11.3529  11.5664

          k =-0.1667-0.1667 0.1667 ( 13514 PWs)   bands (ev):

    -3.0436  -1.5439  -1.5420  -1.5395  -0.0594  -0.0581  -0.0568  -0.0553
    -0.0530  -0.0527   1.4103   1.4135   1.4139   1.4148   1.4162   1.4171
     1.4194   2.8659   2.8669   2.8676   2.8689   2.8704   2.8730   4.2331
     4.2335   4.2340   4.3301   4.3306   4.3310   5.6404   5.6435   5.6440
     5.6450   5.6468   5.6482   5.7580   7.0589   7.0603   7.0611   7.0621
     7.0629   7.0639   7.0728   7.0748   7.0774   7.4048   7.4052   7.4057
     8.4763   8.4775   8.4785   8.4793   8.4799   8.4814   8.8154   8.8180
     8.8187   8.8195

          k =-0.1667 0.1667-0.1667 ( 13514 PWs)   bands (ev):

    -3.0436  -1.5444  -1.5418  -1.5392  -0.0599  -0.0584  -0.0562  -0.0551
    -0.0536  -0.0520   1.4113   1.4120   1.4135   1.4147   1.4167   1.4179
     1.4192   2.8662   2.8666   2.8674   2.8687   2.8709   2.8729   4.2328
     4.2335   4.2343   4.3297   4.3306   4.3314   5.6415   5.6421   5.6434
     5.6447   5.6473   5.6489   5.7580   7.0589   7.0598   7.0605   7.0623
     7.0634   7.0644   7.0723   7.0749   7.0776   7.4044   7.4052   7.4060
     8.4762   8.4770   8.4778   8.4798   8.4805   8.4815   8.8153   8.8161
     8.8182   8.8192

          k = 0.1667-0.1667-0.1667 ( 13514 PWs)   bands (ev):

    -3.0436  -1.5441  -1.5424  -1.5389  -0.0599  -0.0581  -0.0567  -0.0561
    -0.0547  -0.0498   1.4114   1.4120   1.4130   1.4150   1.4160   1.4168
     1.4210   2.8652   2.8663   2.8675   2.8693   2.8703   2.8741   4.2327
     4.2335   4.2344   4.3296   4.3306   4.3315   5.6413   5.6424   5.6438
     5.6451   5.6465   5.6490   5.7580   7.0585   7.0600   7.0605   7.0622
     7.0628   7.0646   7.0730   7.0746   7.0780   7.4043   7.4052   7.4062
     8.4756   8.4774   8.4780   8.4799   8.4803   8.4816   8.8157   8.8169
     8.8179   8.8207

          k =-0.1667 0.1667 0.5000 ( 13552 PWs)   bands (ev):

    -2.5425  -2.5400  -1.0470  -1.0450  -1.0445  -1.0421   0.4326   0.4336
     0.4354   0.4369   0.4384   0.4397   1.8943   1.8956   1.9003   1.9015
     1.9027   1.9040   3.3432   3.3443   3.3450   3.3462   3.3472   3.3492
     4.7045   4.7058   4.7071   4.7084   4.7712   4.7723   4.7731   4.7744
     4.8021   4.8033   6.1378   6.1399   6.1404   6.1429   6.2221   6.2233
     6.2239   6.2250   7.5385   7.5396   7.5411   7.5425   7.6399   7.6413
     7.8531   7.8548   7.8558   7.8573   8.9770   8.9780   8.9788   8.9796
     9.3373   9.3379

          k =-0.5000-0.1667 0.1667 ( 13552 PWs)   bands (ev):

    -2.5426  -2.5399  -1.0476  -1.0448  -1.0440  -1.0422   0.4327   0.4346
     0.4354   0.4368   0.4378   0.4392   1.8944   1.8955   1.9005   1.9010
     1.9028   1.9041   3.3430   3.3442   3.3453   3.3464   3.3469   3.3492
     4.7049   4.7052   4.7072   4.7085   4.7710   4.7723   4.7734   4.7746
     4.8019   4.8033   6.1372   6.1400   6.1410   6.1428   6.2224   6.2231
     6.2235   6.2252   7.5381   7.5398   7.5415   7.5425   7.6399   7.6413
     7.8536   7.8541   7.8557   7.8575   8.9769   8.9780   8.9783   8.9802
     9.3371   9.3385

          k = 0.5000-0.1667-0.1667 ( 13552 PWs)   bands (ev):

    -2.5426  -2.5399  -1.0479  -1.0448  -1.0441  -1.0419   0.4314   0.4343
     0.4352   0.4368   0.4378   0.4411   1.8945   1.8954   1.9000   1.9015
     1.9031   1.9039   3.3424   3.3437   3.3454   3.3464   3.3475   3.3498
     4.7044   4.7056   4.7073   4.7084   4.7703   4.7717   4.7739   4.7750
     4.8020   4.8034   6.1369   6.1401   6.1408   6.1431   6.2221   6.2233
     6.2239   6.2250   7.5383   7.5396   7.5407   7.5432   7.6399   7.6413
     7.8531   7.8547   7.8559   7.8573   8.9770   8.9779   8.9789   8.9796
     9.3374   9.3384

          k =-0.1667-0.5000 0.1667 ( 13552 PWs)   bands (ev):

    -2.5415  -2.5409  -1.0469  -1.0463  -1.0436  -1.0419   0.4330   0.4337
     0.4356   0.4359   0.4382   0.4403   1.8947   1.8953   1.9016   1.9018
     1.9023   1.9027   3.3428   3.3431   3.3463   3.3467   3.3477   3.3485
     4.7061   4.7062   4.7067   4.7068   4.7709   4.7710   4.7743   4.7748
     4.8025   4.8029   6.1380   6.1386   6.1414   6.1430   6.2233   6.2234
     6.2237   6.2239   7.5388   7.5400   7.5412   7.5418   7.6404   7.6408
     7.8549   7.8550   7.8555   7.8557   8.9780   8.9781   8.9786   8.9787
     9.3373   9.3390

          k =-0.1667 0.5000-0.1667 ( 13552 PWs)   bands (ev):

    -2.5415  -2.5409  -1.0471  -1.0466  -1.0430  -1.0420   0.4329   0.4338
     0.4360   0.4368   0.4377   0.4394   1.8946   1.8951   1.9016   1.9019
     1.9021   1.9029   3.3424   3.3428   3.3463   3.3468   3.3483   3.3486
     4.7061   4.7061   4.7062   4.7073   4.7704   4.7708   4.7749   4.7752
     4.8024   4.8027   6.1377   6.1383   6.1420   6.1430   6.2230   6.2234
     6.2234   6.2245   7.5391   7.5396   7.5411   7.5420   7.6404   7.6408
     7.8547   7.8550   7.8550   7.8563   8.9777   8.9779   8.9784   8.9793
     9.3374   9.3382

          k =-0.5000 0.1667 0.5000 ( 13572 PWs)   bands (ev):

    -2.0444  -2.0417  -2.0394  -2.0371  -0.5529  -0.5502  -0.5479  -0.5457
     0.9225   0.9252   0.9275   0.9298   2.3759   2.3766   2.3781   2.3804
     2.3814   2.3818   2.3830   2.3850   3.8156   3.8163   3.8178   3.8201
     3.8212   3.8215   3.8228   3.8247   5.1697   5.1725   5.1751   5.1774
     5.2742   5.2751   5.2764   5.2788   5.2797   5.2804   5.2814   5.2835
     6.6665   6.6678   6.6691   6.6702   8.0978   8.0993   8.1004   8.1016
     8.4080   8.4105   8.4123   8.4145   9.3869   9.3881   9.3896   9.3922
     9.3934   9.3939

          k =-0.5000 0.5000 0.1667 ( 13572 PWs)   bands (ev):

    -2.0427  -2.0416  -2.0392  -2.0390  -0.5513  -0.5502  -0.5477  -0.5476
     0.9241   0.9252   0.9277   0.9279   2.3765   2.3779   2.3784   2.3799
     2.3806   2.3822   2.3831   2.3837   3.8162   3.8176   3.8181   3.8197
     3.8203   3.8219   3.8229   3.8235   5.1714   5.1726   5.1752   5.1754
     5.2749   5.2762   5.2769   5.2782   5.2791   5.2807   5.2814   5.2821
     6.6673   6.6680   6.6691   6.6693   8.0986   8.0993   8.1006   8.1007
     8.4094   8.4104   8.4127   8.4128   9.3873   9.3890   9.3901   9.3917
     9.3934   9.3947

     the Fermi energy is     7.8155 ev

!    total energy              =   -1264.06482669 Ry
     Harris-Foulkes estimate   =   -1264.06482705 Ry
     estimated scf accuracy    <       0.00000029 Ry

     total all-electron energy =    -15540.633849 Ry

     The total energy is the sum of the following terms:

     one-electron contribution =     101.25931000 Ry
     hartree contribution      =       0.20237312 Ry
     xc contribution           =     -82.91767229 Ry
     ewald contribution        =    -172.93188273 Ry
     one-center paw contrib.   =   -1109.67961940 Ry
     smearing contrib. (-TS)   =       0.00266461 Ry

     convergence has been achieved in   9 iterations

     Forces acting on atoms (cartesian axes, Ry/au):

     atom    1 type  1   force =    -0.00000540    0.00000272    0.00001702
     atom    2 type  1   force =    -0.00009123    0.00022082    0.00008206
     atom    3 type  1   force =     0.00022495   -0.00003282   -0.00051644
     atom    4 type  1   force =    -0.00005750   -0.00015931   -0.00034891
     atom    5 type  1   force =    -0.00043817   -0.00039676    0.00032401
     atom    6 type  1   force =    -0.00014965    0.00043535    0.00000472
     atom    7 type  1   force =    -0.00014980   -0.00055311    0.00032698
     atom    8 type  1   force =     0.00001897   -0.00007463   -0.00025940
     atom    9 type  1   force =     0.00000902   -0.00007568    0.00011612
     atom   10 type  1   force =    -0.00016595   -0.00009389   -0.00068763
     atom   11 type  1   force =    -0.00024516   -0.00025435   -0.00039583
     atom   12 type  1   force =    -0.00008707    0.00002548   -0.00006847
     atom   13 type  1   force =    -0.00019618   -0.00032977   -0.00002543
     atom   14 type  1   force =    -0.00002863    0.00014668    0.00042585
     atom   15 type  1   force =    -0.00050974    0.00032629    0.00051894
     atom   16 type  1   force =     0.00062676    0.00048866    0.00013852
     atom   17 type  1   force =    -0.00044277    0.00002129    0.00009984
     atom   18 type  1   force =     0.00020748   -0.00003904    0.00042417
     atom   19 type  1   force =     0.00052389    0.00023470   -0.00008996
     atom   20 type  1   force =     0.00007269    0.00021500    0.00006412
     atom   21 type  1   force =     0.00019269   -0.00054534    0.00011690
     atom   22 type  1   force =    -0.00014516    0.00059674    0.00012925
     atom   23 type  1   force =     0.00011761   -0.00010789   -0.00022310
     atom   24 type  1   force =     0.00013171    0.00013914   -0.00008947
     atom   25 type  1   force =     0.00010746   -0.00016288    0.00033689
     atom   26 type  1   force =     0.00031160   -0.00023470   -0.00024611
     atom   27 type  1   force =    -0.00015840    0.00001730    0.00011210
     atom   28 type  1   force =    -0.00009065    0.00023965   -0.00006536
     atom   29 type  1   force =     0.00083558   -0.00033479   -0.00009259
     atom   30 type  1   force =    -0.00025865    0.00003623    0.00025279
     atom   31 type  1   force =    -0.00008561   -0.00004230   -0.00034768
     atom   32 type  1   force =    -0.00007470    0.00029119   -0.00003391

     Total force =     0.002739     Total SCF correction =     0.000523
     SCF correction compared to forces is large: reduce conv_thr to get better values


     Computing stress (Cartesian axis) and pressure

          total   stress  (Ry/bohr**3)                   (kbar)     P=   -1.06
  -0.00000721  -0.00000000  -0.00000000         -1.06     -0.00     -0.00
  -0.00000000  -0.00000721   0.00000000         -0.00     -1.06      0.00
  -0.00000000   0.00000000  -0.00000721         -0.00      0.00     -1.06


     Writing output data file fe_scf_fcc_2.save/
 
     init_run     :      1.62s CPU      1.77s WALL (       1 calls)
     electrons    :     23.91s CPU     24.46s WALL (       1 calls)
     forces       :      0.39s CPU      0.40s WALL (       1 calls)
     stress       :      1.77s CPU      1.78s WALL (       1 calls)

     Called by init_run:
     wfcinit      :      1.43s CPU      1.49s WALL (       1 calls)
     potinit      :      0.11s CPU      0.12s WALL (       1 calls)
     hinit0       :      0.05s CPU      0.14s WALL (       1 calls)

     Called by electrons:
     c_bands      :     20.14s CPU     20.60s WALL (      10 calls)
     sum_band     :      2.71s CPU      2.79s WALL (      10 calls)
     v_of_rho     :      0.07s CPU      0.08s WALL (      10 calls)
     newd         :      0.06s CPU      0.06s WALL (      10 calls)
     PAW_pot      :      0.97s CPU      0.97s WALL (      10 calls)
     mix_rho      :      0.02s CPU      0.02s WALL (      10 calls)

     Called by c_bands:
     init_us_2    :      0.57s CPU      0.58s WALL (     322 calls)
     cegterg      :     18.68s CPU     19.12s WALL (     140 calls)

     Called by sum_band:
     sum_band:bec :      0.02s CPU      0.02s WALL (     140 calls)
     addusdens    :      0.05s CPU      0.05s WALL (      10 calls)

     Called by *egterg:
     h_psi        :     12.71s CPU     13.09s WALL (     476 calls)
     s_psi        :      1.41s CPU      1.42s WALL (     476 calls)
     g_psi        :      0.06s CPU      0.06s WALL (     322 calls)
     cdiaghg      :      2.92s CPU      2.94s WALL (     448 calls)

     Called by h_psi:
     h_psi:pot    :     12.61s CPU     12.98s WALL (     476 calls)
     h_psi:calbec :      1.46s CPU      1.53s WALL (     476 calls)
     vloc_psi     :      9.72s CPU     10.01s WALL (     476 calls)
     add_vuspsi   :      1.42s CPU      1.44s WALL (     476 calls)

     General routines
     calbec       :      2.49s CPU      2.60s WALL (     686 calls)
     fft          :      0.10s CPU      0.19s WALL (     137 calls)
     ffts         :      0.01s CPU      0.01s WALL (      10 calls)
     fftw         :     10.72s CPU     11.02s WALL (   53392 calls)
 
     Parallel routines
     fft_scatt_xy :      0.96s CPU      0.99s WALL (   53539 calls)
     fft_scatt_yz :      5.80s CPU      5.99s WALL (   53539 calls)
 
     PWSCF        :    28.56s CPU        29.73s WALL

 
   This run was terminated on:   0:59:17  12Mar2020            

=------------------------------------------------------------------------------=
   JOB DONE.
=------------------------------------------------------------------------------=
