
     Program PWSCF v.6.3 starts on 12Mar2020 at  1: 3:34 

     This program is part of the open-source Quantum ESPRESSO suite
     for quantum simulation of materials; please cite
         "P. Giannozzi et al., J. Phys.:Condens. Matter 21 395502 (2009);
         "P. Giannozzi et al., J. Phys.:Condens. Matter 29 465901 (2017);
          URL http://www.quantum-espresso.org", 
     in publications or presentations arising from this work. More details at
     http://www.quantum-espresso.org/quote

     Parallel version (MPI & OpenMP), running on      20 processor cores
     Number of MPI processes:                20
     Threads/MPI process:                     1

     MPI processes distributed on     1 nodes
     R & G space division:  proc/nbgrp/npool/nimage =      20
     Reading input from wd/ecut/file_000052.in
Warning: card &IONS ignored
Warning: card ION_DYNAMICS = 'BFGS', ignored
Warning: card / ignored
Warning: card &CELL ignored
Warning: card CELL_DYNAMICS = 'BFGS', ignored
Warning: card CELL_FACTOR = 2.0, ignored
Warning: card PRESS = 0.0, ignored
Warning: card / ignored

     Current dimensions of program PWSCF are:
     Max number of different atomic species (ntypx) = 10
     Max number of k-points (npk) =  40000
     Max angular momentum in pseudopotentials (lmaxx) =  3
     Message from routine read_upf::
     Pseudo file /rds/homes/b/bxp912/pp/Al.pbe-nl-kjpaw_psl.1.0.0.UPF has been successfully fixed on the fly.
To avoid this message in the future you can permanently fix 
 your pseudo files following instructions given in: 
https://gitlab.com/QEF/q-e/blob/master/upftools/how_to_fix_upf.md
               file Al.pbe-nl-kjpaw_psl.1.0.0.UPF: wavefunction(s)  3S 3P renormalized

     Subspace diagonalization in iterative solution of the eigenvalue problem:
     a serial algorithm will be used

 
     Parallelization info
     --------------------
     sticks:   dense  smooth     PW     G-vecs:    dense   smooth      PW
     Min          97      97     28                 3229     3229     518
     Max          98      98     29                 3232     3232     521
     Sum        1941    1941    577                64589    64589   10395
 


     bravais-lattice index     =            0
     lattice parameter (alat)  =      15.2712  a.u.
     unit-cell volume          =    3561.3897 (a.u.)^3
     number of atoms/cell      =           32
     number of atomic types    =            1
     number of electrons       =        96.00
     number of Kohn-Sham states=           58
     kinetic-energy cutoff     =      27.0000  Ry
     charge density cutoff     =     105.0000  Ry
     convergence threshold     =      1.0E-06
     mixing beta               =       0.1000
     number of iterations used =           10  TF        mixing
     Exchange-correlation      = SLA PW PBX PBC ( 1  4  3  4 0 0)

     celldm(1)=  15.271200  celldm(2)=   0.000000  celldm(3)=   0.000000
     celldm(4)=   0.000000  celldm(5)=   0.000000  celldm(6)=   0.000000

     crystal axes: (cart. coord. in units of alat)
               a(1) = (   1.000000   0.000000   0.000000 )  
               a(2) = (   0.000000   1.000000   0.000000 )  
               a(3) = (   0.000000   0.000000   1.000000 )  

     reciprocal axes: (cart. coord. in units 2 pi/alat)
               b(1) = (  1.000000  0.000000  0.000000 )  
               b(2) = (  0.000000  1.000000  0.000000 )  
               b(3) = (  0.000000  0.000000  1.000000 )  


     PseudoPot. # 1 for Al read from file:
     /rds/homes/b/bxp912/pp/Al.pbe-nl-kjpaw_psl.1.0.0.UPF
     MD5 check sum: 339dbea23cf3ab9a065ad45c0f9085d7
     Pseudo is Projector augmented-wave + core cor, Zval =  3.0
     Generated using "atomic" code by A. Dal Corso v.5.1
     Shape of augmentation charge: PSQ
     Using radial grid of 1135 points,  4 beta functions with: 
                l(1) =   0
                l(2) =   0
                l(3) =   1
                l(4) =   1
     Q(r) pseudized with 0 coefficients 


     atomic species   valence    mass     pseudopotential
        Al             3.00    26.98200     Al( 1.00)

     No symmetry found



   Cartesian axes

     site n.     atom                  positions (alat units)
         1           Al  tau(   1) = (  -0.0000327   0.0000095   0.0000680  )
         2           Al  tau(   2) = (   0.2500796   0.2498100   0.0000703  )
         3           Al  tau(   3) = (   0.2499071   0.0000305   0.2502955  )
         4           Al  tau(   4) = (  -0.0000200   0.2502187   0.2501837  )
         5           Al  tau(   5) = (   0.0002558   0.0002521   0.4998810  )
         6           Al  tau(   6) = (   0.2501194   0.2498326   0.5000036  )
         7           Al  tau(   7) = (   0.2500278   0.0001539   0.7498880  )
         8           Al  tau(   8) = (   0.0000549   0.2501136   0.7502101  )
         9           Al  tau(   9) = (   0.0002375   0.5001078  -0.0000154  )
        10           Al  tau(  10) = (   0.2501396   0.7501762   0.0004054  )
        11           Al  tau(  11) = (   0.2501891   0.5001088   0.2502510  )
        12           Al  tau(  12) = (   0.0000383   0.7500455   0.2500253  )
        13           Al  tau(  13) = (   0.0001102   0.5001562   0.5000990  )
        14           Al  tau(  14) = (   0.2499640   0.7500632   0.4998706  )
        15           Al  tau(  15) = (   0.2503366   0.4997894   0.7496960  )
        16           Al  tau(  16) = (  -0.0003280   0.7497055   0.7499931  )
        17           Al  tau(  17) = (   0.5002037  -0.0001004  -0.0000387  )
        18           Al  tau(  18) = (   0.7499123   0.2500941  -0.0002332  )
        19           Al  tau(  19) = (   0.7496354  -0.0000959   0.2500771  )
        20           Al  tau(  20) = (   0.4999751   0.2499614   0.2498317  )
        21           Al  tau(  21) = (   0.4999211   0.0002929   0.4999726  )
        22           Al  tau(  22) = (   0.7500684   0.2496958   0.4999523  )
        23           Al  tau(  23) = (   0.7500357  -0.0000687   0.7500257  )
        24           Al  tau(  24) = (   0.5000114   0.2498864   0.7499948  )
        25           Al  tau(  25) = (   0.4998526   0.5001156  -0.0002192  )
        26           Al  tau(  26) = (   0.7497723   0.7500978   0.0002736  )
        27           Al  tau(  27) = (   0.7501007   0.4998018   0.2499462  )
        28           Al  tau(  28) = (   0.5000878   0.7497908   0.2502093  )
        29           Al  tau(  29) = (   0.4996761   0.5001027   0.5000404  )
        30           Al  tau(  30) = (   0.7501658   0.7499872   0.4998547  )
        31           Al  tau(  31) = (   0.7499472   0.5000095   0.7501393  )
        32           Al  tau(  32) = (   0.5000142   0.7499486   0.7499177  )

     number of k points=    14  Marzari-Vanderbilt smearing, width (Ry)=  0.0200
                       cart. coord. in units 2pi/alat
        k(    1) = (   0.1666667   0.1666667   0.1666667), wk =   0.1481481
        k(    2) = (   0.1666667   0.1666667  -0.5000000), wk =   0.1481481
        k(    3) = (   0.1666667  -0.5000000  -0.5000000), wk =   0.1481481
        k(    4) = (  -0.5000000  -0.5000000  -0.5000000), wk =   0.0740741
        k(    5) = (  -0.1666667  -0.1666667   0.1666667), wk =   0.1481481
        k(    6) = (  -0.1666667   0.1666667  -0.1666667), wk =   0.1481481
        k(    7) = (   0.1666667  -0.1666667  -0.1666667), wk =   0.1481481
        k(    8) = (  -0.1666667   0.1666667   0.5000000), wk =   0.1481481
        k(    9) = (  -0.5000000  -0.1666667   0.1666667), wk =   0.1481481
        k(   10) = (   0.5000000  -0.1666667  -0.1666667), wk =   0.1481481
        k(   11) = (  -0.1666667  -0.5000000   0.1666667), wk =   0.1481481
        k(   12) = (  -0.1666667   0.5000000  -0.1666667), wk =   0.1481481
        k(   13) = (  -0.5000000   0.1666667   0.5000000), wk =   0.1481481
        k(   14) = (  -0.5000000   0.5000000   0.1666667), wk =   0.1481481

     Dense  grid:    64589 G-vectors     FFT dimensions: (  50,  50,  50)

     Estimated max dynamical RAM per process >      17.02 MB

     Estimated total dynamical RAM >     340.43 MB

     Initial potential from superposition of free atoms

     starting charge   95.92671, renormalised to   96.00000
     Starting wfcs are  128 randomized atomic wfcs
     Checking if some PAW data can be deallocated... 

     total cpu time spent up to now is        2.4 secs

     Self-consistent Calculation

     iteration #  1     ecut=    27.00 Ry     beta= 0.10
     Davidson diagonalization with overlap
     ethr =  1.00E-02,  avg # of iterations =  3.0

     Threshold (ethr) on eigenvalues was too large:
     Diagonalizing with lowered threshold

     Davidson diagonalization with overlap
     ethr =  1.93E-04,  avg # of iterations =  3.6

     total cpu time spent up to now is        7.1 secs

     total energy              =   -1264.10192594 Ry
     Harris-Foulkes estimate   =   -1264.10809062 Ry
     estimated scf accuracy    <       0.18076377 Ry

     iteration #  2     ecut=    27.00 Ry     beta= 0.10
     Davidson diagonalization with overlap
     ethr =  1.88E-04,  avg # of iterations =  1.0

     total cpu time spent up to now is        8.6 secs

     total energy              =   -1264.05502151 Ry
     Harris-Foulkes estimate   =   -1264.10274517 Ry
     estimated scf accuracy    <       0.15686822 Ry

     iteration #  3     ecut=    27.00 Ry     beta= 0.10
     Davidson diagonalization with overlap
     ethr =  1.63E-04,  avg # of iterations =  1.0

     total cpu time spent up to now is       10.1 secs

     total energy              =   -1264.05787702 Ry
     Harris-Foulkes estimate   =   -1264.05802207 Ry
     estimated scf accuracy    <       0.00060411 Ry

     iteration #  4     ecut=    27.00 Ry     beta= 0.10
     Davidson diagonalization with overlap
     c_bands:  1 eigenvalues not converged
     ethr =  6.29E-07,  avg # of iterations =  5.1

     total cpu time spent up to now is       13.3 secs

     total energy              =   -1264.05850943 Ry
     Harris-Foulkes estimate   =   -1264.05866771 Ry
     estimated scf accuracy    <       0.00035816 Ry

     iteration #  5     ecut=    27.00 Ry     beta= 0.10
     Davidson diagonalization with overlap
     ethr =  3.73E-07,  avg # of iterations =  1.7

     total cpu time spent up to now is       14.9 secs

     total energy              =   -1264.05831831 Ry
     Harris-Foulkes estimate   =   -1264.05851984 Ry
     estimated scf accuracy    <       0.00022955 Ry

     iteration #  6     ecut=    27.00 Ry     beta= 0.10
     Davidson diagonalization with overlap
     ethr =  2.39E-07,  avg # of iterations =  2.0

     total cpu time spent up to now is       16.9 secs

     total energy              =   -1264.05838097 Ry
     Harris-Foulkes estimate   =   -1264.05838164 Ry
     estimated scf accuracy    <       0.00001317 Ry

     iteration #  7     ecut=    27.00 Ry     beta= 0.10
     Davidson diagonalization with overlap
     ethr =  1.37E-08,  avg # of iterations =  2.3

     total cpu time spent up to now is       18.7 secs

     total energy              =   -1264.05837313 Ry
     Harris-Foulkes estimate   =   -1264.05838183 Ry
     estimated scf accuracy    <       0.00000578 Ry

     iteration #  8     ecut=    27.00 Ry     beta= 0.10
     Davidson diagonalization with overlap
     ethr =  6.02E-09,  avg # of iterations =  2.1

     total cpu time spent up to now is       20.5 secs

     End of self-consistent calculation

          k = 0.1667 0.1667 0.1667 (  8490 PWs)   bands (ev):

    -3.0431  -1.5439  -1.5414  -1.5384  -0.0589  -0.0581  -0.0559  -0.0548
    -0.0534  -0.0498   1.4117   1.4129   1.4150   1.4163   1.4173   1.4180
     1.4201   2.8660   2.8678   2.8691   2.8698   2.8717   2.8743   4.2337
     4.2344   4.2351   4.3311   4.3319   4.3326   5.6427   5.6430   5.6460
     5.6467   5.6480   5.6493   5.7594   7.0605   7.0609   7.0625   7.0642
     7.0652   7.0660   7.0741   7.0766   7.0797   7.4066   7.4073   7.4081
     8.4783   8.4789   8.4806   8.4819   8.4832   8.4838   8.8182   8.8193
     8.8203   8.8224

          k = 0.1667 0.1667-0.5000 (  8408 PWs)   bands (ev):

    -2.5420  -2.5395  -1.0458  -1.0450  -1.0435  -1.0419   0.4331   0.4349
     0.4365   0.4376   0.4392   0.4398   1.8953   1.8966   1.9013   1.9020
     1.9038   1.9046   3.3445   3.3455   3.3460   3.3463   3.3486   3.3505
     4.7060   4.7065   4.7084   4.7092   4.7728   4.7740   4.7741   4.7752
     4.8034   4.8046   6.1399   6.1406   6.1422   6.1440   6.2242   6.2248
     6.2255   6.2264   7.5407   7.5413   7.5430   7.5447   7.6419   7.6432
     7.8559   7.8566   7.8582   7.8593   8.9796   8.9799   8.9811   8.9818
     9.3397   9.3403

          k = 0.1667-0.5000-0.5000 (  8440 PWs)   bands (ev):

    -2.0424  -2.0414  -2.0390  -2.0377  -0.5508  -0.5498  -0.5474  -0.5461
     0.9247   0.9257   0.9281   0.9295   2.3773   2.3787   2.3794   2.3803
     2.3812   2.3833   2.3843   2.3850   3.8172   3.8186   3.8193   3.8203
     3.8211   3.8233   3.8243   3.8250   5.1724   5.1735   5.1760   5.1775
     5.2763   5.2776   5.2782   5.2792   5.2803   5.2823   5.2833   5.2840
     6.6688   6.6694   6.6706   6.6714   8.1007   8.1012   8.1024   8.1032
     8.4117   8.4126   8.4147   8.4159   9.3897   9.3917   9.3924   9.3939
     9.3954   9.3981

          k =-0.5000-0.5000-0.5000 (  8480 PWs)   bands (ev):

    -1.5460  -1.5452  -1.5426  -1.5420  -1.5408  -1.5390  -1.5385  -1.5359
     2.8567   2.8571   2.8583   2.8590   2.8602   2.8611   2.8613   2.8623
     2.8626   2.8632   2.8635   2.8641   2.8644   2.8648   2.8654   2.8656
     2.8665   2.8674   2.8679   2.8682   2.8690   2.8705   2.8720   2.8741
     7.1497   7.1508   7.1514   7.1520   7.1532   7.1538   7.1542   7.1545
     7.1546   7.1553   7.1565   7.1570   7.1577   7.1579   7.1582   7.1589
     7.1593   7.1600   7.1604   7.1606   7.1616   7.1623   7.1640   7.1642
    11.3540  11.3560

          k =-0.1667-0.1667 0.1667 (  8490 PWs)   bands (ev):

    -3.0431  -1.5433  -1.5415  -1.5390  -0.0587  -0.0573  -0.0561  -0.0546
    -0.0523  -0.0520   1.4112   1.4143   1.4148   1.4157   1.4170   1.4180
     1.4203   2.8669   2.8679   2.8686   2.8699   2.8714   2.8740   4.2340
     4.2344   4.2348   4.3314   4.3319   4.3323   5.6417   5.6448   5.6453
     5.6463   5.6480   5.6495   5.7594   7.0606   7.0620   7.0628   7.0638
     7.0646   7.0656   7.0746   7.0766   7.0791   7.4069   7.4073   7.4078
     8.4786   8.4798   8.4808   8.4816   8.4822   8.4837   8.8188   8.8200
     8.8215   8.8229

          k =-0.1667 0.1667-0.1667 (  8490 PWs)   bands (ev):

    -3.0431  -1.5439  -1.5413  -1.5387  -0.0591  -0.0577  -0.0555  -0.0544
    -0.0529  -0.0513   1.4122   1.4129   1.4144   1.4155   1.4175   1.4187
     1.4200   2.8672   2.8676   2.8684   2.8697   2.8719   2.8739   4.2337
     4.2344   4.2352   4.3310   4.3319   4.3327   5.6428   5.6434   5.6447
     5.6459   5.6486   5.6502   5.7594   7.0606   7.0615   7.0622   7.0640
     7.0651   7.0661   7.0741   7.0766   7.0793   7.4065   7.4073   7.4081
     8.4785   8.4793   8.4801   8.4822   8.4828   8.4838   8.8181   8.8191
     8.8214   8.8225

          k = 0.1667-0.1667-0.1667 (  8490 PWs)   bands (ev):

    -3.0431  -1.5435  -1.5419  -1.5384  -0.0591  -0.0574  -0.0560  -0.0554
    -0.0541  -0.0491   1.4123   1.4128   1.4139   1.4159   1.4169   1.4176
     1.4218   2.8662   2.8673   2.8685   2.8703   2.8713   2.8751   4.2336
     4.2344   4.2353   4.3309   4.3319   4.3328   5.6426   5.6436   5.6451
     5.6464   5.6478   5.6503   5.7594   7.0602   7.0617   7.0622   7.0639
     7.0645   7.0663   7.0748   7.0764   7.0798   7.4064   7.4073   7.4083
     8.4779   8.4797   8.4803   8.4822   8.4826   8.4840   8.8186   8.8191
     8.8206   8.8218

          k =-0.1667 0.1667 0.5000 (  8408 PWs)   bands (ev):

    -2.5420  -2.5395  -1.0464  -1.0444  -1.0439  -1.0415   0.4334   0.4343
     0.4361   0.4376   0.4391   0.4405   1.8951   1.8964   1.9012   1.9024
     1.9036   1.9049   3.3442   3.3453   3.3461   3.3473   3.3483   3.3503
     4.7055   4.7069   4.7081   4.7094   4.7724   4.7736   4.7744   4.7756
     4.8034   4.8046   6.1393   6.1414   6.1418   6.1443   6.2238   6.2249
     6.2256   6.2266   7.5405   7.5416   7.5431   7.5445   7.6419   7.6432
     7.8554   7.8571   7.8580   7.8595   8.9793   8.9802   8.9810   8.9818
     9.3401   9.3415

          k =-0.5000-0.1667 0.1667 (  8408 PWs)   bands (ev):

    -2.5421  -2.5394  -1.0470  -1.0442  -1.0434  -1.0416   0.4335   0.4354
     0.4362   0.4376   0.4385   0.4399   1.8953   1.8963   1.9015   1.9019
     1.9037   1.9050   3.3441   3.3453   3.3464   3.3475   3.3480   3.3502
     4.7060   4.7062   4.7082   4.7096   4.7722   4.7735   4.7746   4.7758
     4.8032   4.8046   6.1387   6.1415   6.1424   6.1442   6.2241   6.2248
     6.2251   6.2269   7.5401   7.5417   7.5435   7.5445   7.6418   7.6433
     7.8559   7.8564   7.8580   7.8597   8.9791   8.9803   8.9806   8.9824
     9.3388   9.3407

          k = 0.5000-0.1667-0.1667 (  8408 PWs)   bands (ev):

    -2.5421  -2.5394  -1.0473  -1.0442  -1.0434  -1.0413   0.4322   0.4350
     0.4359   0.4375   0.4385   0.4418   1.8954   1.8962   1.9009   1.9024
     1.9040   1.9048   3.3435   3.3447   3.3464   3.3474   3.3486   3.3508
     4.7055   4.7067   4.7083   4.7094   4.7716   4.7730   4.7752   4.7763
     4.8034   4.8048   6.1384   6.1416   6.1423   6.1445   6.2238   6.2250
     6.2256   6.2266   7.5403   7.5416   7.5427   7.5452   7.6418   7.6433
     7.8554   7.8569   7.8582   7.8595   8.9792   8.9801   8.9811   8.9819
     9.3396   9.3425

          k =-0.1667-0.5000 0.1667 (  8408 PWs)   bands (ev):

    -2.5410  -2.5405  -1.0462  -1.0457  -1.0430  -1.0413   0.4337   0.4344
     0.4363   0.4367   0.4389   0.4410   1.8955   1.8961   1.9025   1.9027
     1.9032   1.9036   3.3439   3.3441   3.3473   3.3477   3.3488   3.3496
     4.7072   4.7072   4.7078   4.7079   4.7721   4.7723   4.7756   4.7761
     4.8039   4.8042   6.1395   6.1400   6.1428   6.1445   6.2249   6.2250
     6.2254   6.2255   7.5408   7.5420   7.5432   7.5437   7.6423   7.6427
     7.8571   7.8572   7.8578   7.8579   8.9803   8.9803   8.9808   8.9809
     9.3398   9.3409

          k =-0.1667 0.5000-0.1667 (  8408 PWs)   bands (ev):

    -2.5410  -2.5405  -1.0465  -1.0459  -1.0424  -1.0414   0.4337   0.4346
     0.4367   0.4375   0.4384   0.4401   1.8954   1.8960   1.9026   1.9028
     1.9030   1.9039   3.3435   3.3439   3.3473   3.3478   3.3493   3.3497
     4.7071   4.7072   4.7073   4.7084   4.7717   4.7720   4.7761   4.7764
     4.8037   4.8041   6.1392   6.1398   6.1434   6.1444   6.2246   6.2250
     6.2251   6.2262   7.5411   7.5416   7.5431   7.5440   7.6423   7.6427
     7.8570   7.8572   7.8573   7.8585   8.9800   8.9801   8.9807   8.9816
     9.3396   9.3416

          k =-0.5000 0.1667 0.5000 (  8440 PWs)   bands (ev):

    -2.0438  -2.0412  -2.0389  -2.0367  -0.5522  -0.5496  -0.5473  -0.5450
     0.9233   0.9260   0.9283   0.9305   2.3769   2.3776   2.3790   2.3813
     2.3823   2.3827   2.3839   2.3859   3.8168   3.8174   3.8189   3.8213
     3.8223   3.8226   3.8239   3.8258   5.1709   5.1737   5.1762   5.1785
     5.2757   5.2766   5.2778   5.2802   5.2811   5.2818   5.2829   5.2849
     6.6682   6.6695   6.6708   6.6718   8.1000   8.1014   8.1025   8.1037
     8.4104   8.4129   8.4147   8.4168   9.3896   9.3904   9.3922   9.3948
     9.3966   9.3988

          k =-0.5000 0.5000 0.1667 (  8440 PWs)   bands (ev):

    -2.0422  -2.0411  -2.0387  -2.0385  -0.5506  -0.5495  -0.5471  -0.5469
     0.9249   0.9260   0.9285   0.9287   2.3774   2.3788   2.3793   2.3808
     2.3815   2.3831   2.3840   2.3846   3.8173   3.8187   3.8192   3.8208
     3.8214   3.8230   3.8240   3.8245   5.1726   5.1738   5.1764   5.1766
     5.2764   5.2776   5.2784   5.2797   5.2805   5.2822   5.2828   5.2835
     6.6690   6.6696   6.6708   6.6709   8.1007   8.1014   8.1027   8.1028
     8.4118   8.4128   8.4151   8.4152   9.3902   9.3923   9.3930   9.3948
     9.3951   9.3970

     the Fermi energy is     7.8177 ev

!    total energy              =   -1264.05837406 Ry
     Harris-Foulkes estimate   =   -1264.05837389 Ry
     estimated scf accuracy    <       0.00000097 Ry

     total all-electron energy =    -15540.627396 Ry

     The total energy is the sum of the following terms:

     one-electron contribution =     101.27241874 Ry
     hartree contribution      =       0.20235396 Ry
     xc contribution           =     -82.91871765 Ry
     ewald contribution        =    -172.93188273 Ry
     one-center paw contrib.   =   -1109.68522404 Ry
     smearing contrib. (-TS)   =       0.00267764 Ry

     convergence has been achieved in   8 iterations

     Forces acting on atoms (cartesian axes, Ry/au):

     atom    1 type  1   force =     0.00000275   -0.00001405    0.00000692
     atom    2 type  1   force =    -0.00010597    0.00021601    0.00007556
     atom    3 type  1   force =     0.00022513   -0.00001014   -0.00053262
     atom    4 type  1   force =    -0.00004266   -0.00017031   -0.00033652
     atom    5 type  1   force =    -0.00044640   -0.00039384    0.00033643
     atom    6 type  1   force =    -0.00015484    0.00042901   -0.00000440
     atom    7 type  1   force =    -0.00016298   -0.00054298    0.00034904
     atom    8 type  1   force =     0.00004201   -0.00007485   -0.00026081
     atom    9 type  1   force =     0.00000111   -0.00006149    0.00011822
     atom   10 type  1   force =    -0.00019562   -0.00009013   -0.00067254
     atom   11 type  1   force =    -0.00023521   -0.00026524   -0.00039309
     atom   12 type  1   force =    -0.00010407    0.00003529   -0.00006685
     atom   13 type  1   force =    -0.00017837   -0.00034010   -0.00003049
     atom   14 type  1   force =    -0.00002607    0.00015224    0.00044176
     atom   15 type  1   force =    -0.00052947    0.00033397    0.00050722
     atom   16 type  1   force =     0.00063184    0.00051223    0.00012912
     atom   17 type  1   force =    -0.00042531    0.00004651    0.00008935
     atom   18 type  1   force =     0.00019842   -0.00006429    0.00044210
     atom   19 type  1   force =     0.00052052    0.00023250   -0.00008254
     atom   20 type  1   force =     0.00009105    0.00021463    0.00006370
     atom   21 type  1   force =     0.00021234   -0.00056004    0.00011476
     atom   22 type  1   force =    -0.00012641    0.00059859    0.00013742
     atom   23 type  1   force =     0.00013303   -0.00009799   -0.00020503
     atom   24 type  1   force =     0.00012325    0.00013600   -0.00008710
     atom   25 type  1   force =     0.00009010   -0.00019093    0.00033314
     atom   26 type  1   force =     0.00031372   -0.00021270   -0.00025949
     atom   27 type  1   force =    -0.00017011    0.00002239    0.00012782
     atom   28 type  1   force =    -0.00009478    0.00024210   -0.00007124
     atom   29 type  1   force =     0.00083964   -0.00035627   -0.00011209
     atom   30 type  1   force =    -0.00025835    0.00004584    0.00024299
     atom   31 type  1   force =    -0.00007875   -0.00006255   -0.00037324
     atom   32 type  1   force =    -0.00008954    0.00029059   -0.00002748

     Total force =     0.002764     Total SCF correction =     0.000473
     SCF correction compared to forces is large: reduce conv_thr to get better values


     Computing stress (Cartesian axis) and pressure

          total   stress  (Ry/bohr**3)                   (kbar)     P=   -1.54
  -0.00001048  -0.00000001  -0.00000001         -1.54     -0.00     -0.00
  -0.00000001  -0.00001047   0.00000000         -0.00     -1.54      0.00
  -0.00000001   0.00000000  -0.00001048         -0.00      0.00     -1.54


     Writing output data file fe_scf_fcc_2.save/
 
     init_run     :      1.55s CPU      1.68s WALL (       1 calls)
     electrons    :     17.66s CPU     18.10s WALL (       1 calls)
     forces       :      0.28s CPU      0.30s WALL (       1 calls)
     stress       :      0.91s CPU      0.92s WALL (       1 calls)

     Called by init_run:
     wfcinit      :      1.12s CPU      1.17s WALL (       1 calls)
     potinit      :      0.11s CPU      0.11s WALL (       1 calls)
     hinit0       :      0.22s CPU      0.30s WALL (       1 calls)

     Called by electrons:
     c_bands      :     14.76s CPU     15.12s WALL (       9 calls)
     sum_band     :      1.95s CPU      2.02s WALL (       9 calls)
     v_of_rho     :      0.06s CPU      0.07s WALL (       9 calls)
     newd         :      0.05s CPU      0.05s WALL (       9 calls)
     PAW_pot      :      0.87s CPU      0.88s WALL (       9 calls)
     mix_rho      :      0.02s CPU      0.02s WALL (       9 calls)

     Called by c_bands:
     init_us_2    :      0.32s CPU      0.33s WALL (     294 calls)
     cegterg      :     13.93s CPU     14.27s WALL (     126 calls)

     Called by sum_band:
     sum_band:bec :      0.02s CPU      0.02s WALL (     126 calls)
     addusdens    :      0.04s CPU      0.05s WALL (       9 calls)

     Called by *egterg:
     h_psi        :      9.60s CPU      9.91s WALL (     445 calls)
     s_psi        :      0.84s CPU      0.86s WALL (     445 calls)
     g_psi        :      0.04s CPU      0.04s WALL (     305 calls)
     cdiaghg      :      2.73s CPU      2.75s WALL (     417 calls)

     Called by h_psi:
     h_psi:pot    :      9.54s CPU      9.85s WALL (     445 calls)
     h_psi:calbec :      0.90s CPU      0.96s WALL (     445 calls)
     vloc_psi     :      7.75s CPU      7.99s WALL (     445 calls)
     add_vuspsi   :      0.89s CPU      0.89s WALL (     445 calls)

     General routines
     calbec       :      1.37s CPU      1.46s WALL (     641 calls)
     fft          :      0.27s CPU      0.35s WALL (     126 calls)
     ffts         :      0.00s CPU      0.01s WALL (       9 calls)
     fftw         :      8.46s CPU      8.72s WALL (   49062 calls)
 
     Parallel routines
     fft_scatt_xy :      0.83s CPU      0.85s WALL (   49197 calls)
     fft_scatt_yz :      4.46s CPU      4.61s WALL (   49197 calls)
 
     PWSCF        :    21.28s CPU        22.08s WALL

 
   This run was terminated on:   1: 3:56  12Mar2020            

=------------------------------------------------------------------------------=
   JOB DONE.
=------------------------------------------------------------------------------=
