
     Program PWSCF v.6.3 starts on 12Mar2020 at  1: 0:24 

     This program is part of the open-source Quantum ESPRESSO suite
     for quantum simulation of materials; please cite
         "P. Giannozzi et al., J. Phys.:Condens. Matter 21 395502 (2009);
         "P. Giannozzi et al., J. Phys.:Condens. Matter 29 465901 (2017);
          URL http://www.quantum-espresso.org", 
     in publications or presentations arising from this work. More details at
     http://www.quantum-espresso.org/quote

     Parallel version (MPI & OpenMP), running on      20 processor cores
     Number of MPI processes:                20
     Threads/MPI process:                     1

     MPI processes distributed on     1 nodes
     R & G space division:  proc/nbgrp/npool/nimage =      20
     Reading input from wd/ecut/file_000045.in
Warning: card &IONS ignored
Warning: card ION_DYNAMICS = 'BFGS', ignored
Warning: card / ignored
Warning: card &CELL ignored
Warning: card CELL_DYNAMICS = 'BFGS', ignored
Warning: card CELL_FACTOR = 2.0, ignored
Warning: card PRESS = 0.0, ignored
Warning: card / ignored

     Current dimensions of program PWSCF are:
     Max number of different atomic species (ntypx) = 10
     Max number of k-points (npk) =  40000
     Max angular momentum in pseudopotentials (lmaxx) =  3
     Message from routine read_upf::
     Pseudo file /rds/homes/b/bxp912/pp/Al.pbe-nl-kjpaw_psl.1.0.0.UPF has been successfully fixed on the fly.
To avoid this message in the future you can permanently fix 
 your pseudo files following instructions given in: 
https://gitlab.com/QEF/q-e/blob/master/upftools/how_to_fix_upf.md
               file Al.pbe-nl-kjpaw_psl.1.0.0.UPF: wavefunction(s)  3S 3P renormalized

     Subspace diagonalization in iterative solution of the eigenvalue problem:
     a serial algorithm will be used

 
     Parallelization info
     --------------------
     sticks:   dense  smooth     PW     G-vecs:    dense   smooth      PW
     Min          97      97     35                 3229     3229     711
     Max          98      98     36                 3232     3232     714
     Sum        1941    1941    717                64589    64589   14243
 


     bravais-lattice index     =            0
     lattice parameter (alat)  =      15.2712  a.u.
     unit-cell volume          =    3561.3897 (a.u.)^3
     number of atoms/cell      =           32
     number of atomic types    =            1
     number of electrons       =        96.00
     number of Kohn-Sham states=           58
     kinetic-energy cutoff     =      34.0000  Ry
     charge density cutoff     =     105.0000  Ry
     convergence threshold     =      1.0E-06
     mixing beta               =       0.1000
     number of iterations used =           10  TF        mixing
     Exchange-correlation      = SLA PW PBX PBC ( 1  4  3  4 0 0)

     celldm(1)=  15.271200  celldm(2)=   0.000000  celldm(3)=   0.000000
     celldm(4)=   0.000000  celldm(5)=   0.000000  celldm(6)=   0.000000

     crystal axes: (cart. coord. in units of alat)
               a(1) = (   1.000000   0.000000   0.000000 )  
               a(2) = (   0.000000   1.000000   0.000000 )  
               a(3) = (   0.000000   0.000000   1.000000 )  

     reciprocal axes: (cart. coord. in units 2 pi/alat)
               b(1) = (  1.000000  0.000000  0.000000 )  
               b(2) = (  0.000000  1.000000  0.000000 )  
               b(3) = (  0.000000  0.000000  1.000000 )  


     PseudoPot. # 1 for Al read from file:
     /rds/homes/b/bxp912/pp/Al.pbe-nl-kjpaw_psl.1.0.0.UPF
     MD5 check sum: 339dbea23cf3ab9a065ad45c0f9085d7
     Pseudo is Projector augmented-wave + core cor, Zval =  3.0
     Generated using "atomic" code by A. Dal Corso v.5.1
     Shape of augmentation charge: PSQ
     Using radial grid of 1135 points,  4 beta functions with: 
                l(1) =   0
                l(2) =   0
                l(3) =   1
                l(4) =   1
     Q(r) pseudized with 0 coefficients 


     atomic species   valence    mass     pseudopotential
        Al             3.00    26.98200     Al( 1.00)

     No symmetry found



   Cartesian axes

     site n.     atom                  positions (alat units)
         1           Al  tau(   1) = (  -0.0000327   0.0000095   0.0000680  )
         2           Al  tau(   2) = (   0.2500796   0.2498100   0.0000703  )
         3           Al  tau(   3) = (   0.2499071   0.0000305   0.2502955  )
         4           Al  tau(   4) = (  -0.0000200   0.2502187   0.2501837  )
         5           Al  tau(   5) = (   0.0002558   0.0002521   0.4998810  )
         6           Al  tau(   6) = (   0.2501194   0.2498326   0.5000036  )
         7           Al  tau(   7) = (   0.2500278   0.0001539   0.7498880  )
         8           Al  tau(   8) = (   0.0000549   0.2501136   0.7502101  )
         9           Al  tau(   9) = (   0.0002375   0.5001078  -0.0000154  )
        10           Al  tau(  10) = (   0.2501396   0.7501762   0.0004054  )
        11           Al  tau(  11) = (   0.2501891   0.5001088   0.2502510  )
        12           Al  tau(  12) = (   0.0000383   0.7500455   0.2500253  )
        13           Al  tau(  13) = (   0.0001102   0.5001562   0.5000990  )
        14           Al  tau(  14) = (   0.2499640   0.7500632   0.4998706  )
        15           Al  tau(  15) = (   0.2503366   0.4997894   0.7496960  )
        16           Al  tau(  16) = (  -0.0003280   0.7497055   0.7499931  )
        17           Al  tau(  17) = (   0.5002037  -0.0001004  -0.0000387  )
        18           Al  tau(  18) = (   0.7499123   0.2500941  -0.0002332  )
        19           Al  tau(  19) = (   0.7496354  -0.0000959   0.2500771  )
        20           Al  tau(  20) = (   0.4999751   0.2499614   0.2498317  )
        21           Al  tau(  21) = (   0.4999211   0.0002929   0.4999726  )
        22           Al  tau(  22) = (   0.7500684   0.2496958   0.4999523  )
        23           Al  tau(  23) = (   0.7500357  -0.0000687   0.7500257  )
        24           Al  tau(  24) = (   0.5000114   0.2498864   0.7499948  )
        25           Al  tau(  25) = (   0.4998526   0.5001156  -0.0002192  )
        26           Al  tau(  26) = (   0.7497723   0.7500978   0.0002736  )
        27           Al  tau(  27) = (   0.7501007   0.4998018   0.2499462  )
        28           Al  tau(  28) = (   0.5000878   0.7497908   0.2502093  )
        29           Al  tau(  29) = (   0.4996761   0.5001027   0.5000404  )
        30           Al  tau(  30) = (   0.7501658   0.7499872   0.4998547  )
        31           Al  tau(  31) = (   0.7499472   0.5000095   0.7501393  )
        32           Al  tau(  32) = (   0.5000142   0.7499486   0.7499177  )

     number of k points=    14  Marzari-Vanderbilt smearing, width (Ry)=  0.0200
                       cart. coord. in units 2pi/alat
        k(    1) = (   0.1666667   0.1666667   0.1666667), wk =   0.1481481
        k(    2) = (   0.1666667   0.1666667  -0.5000000), wk =   0.1481481
        k(    3) = (   0.1666667  -0.5000000  -0.5000000), wk =   0.1481481
        k(    4) = (  -0.5000000  -0.5000000  -0.5000000), wk =   0.0740741
        k(    5) = (  -0.1666667  -0.1666667   0.1666667), wk =   0.1481481
        k(    6) = (  -0.1666667   0.1666667  -0.1666667), wk =   0.1481481
        k(    7) = (   0.1666667  -0.1666667  -0.1666667), wk =   0.1481481
        k(    8) = (  -0.1666667   0.1666667   0.5000000), wk =   0.1481481
        k(    9) = (  -0.5000000  -0.1666667   0.1666667), wk =   0.1481481
        k(   10) = (   0.5000000  -0.1666667  -0.1666667), wk =   0.1481481
        k(   11) = (  -0.1666667  -0.5000000   0.1666667), wk =   0.1481481
        k(   12) = (  -0.1666667   0.5000000  -0.1666667), wk =   0.1481481
        k(   13) = (  -0.5000000   0.1666667   0.5000000), wk =   0.1481481
        k(   14) = (  -0.5000000   0.5000000   0.1666667), wk =   0.1481481

     Dense  grid:    64589 G-vectors     FFT dimensions: (  50,  50,  50)

     Estimated max dynamical RAM per process >      21.89 MB

     Estimated total dynamical RAM >     437.73 MB

     Initial potential from superposition of free atoms

     starting charge   95.92671, renormalised to   96.00000
     Starting wfcs are  128 randomized atomic wfcs
     Checking if some PAW data can be deallocated... 

     total cpu time spent up to now is        2.5 secs

     Self-consistent Calculation

     iteration #  1     ecut=    34.00 Ry     beta= 0.10
     Davidson diagonalization with overlap
     ethr =  1.00E-02,  avg # of iterations =  3.0

     Threshold (ethr) on eigenvalues was too large:
     Diagonalizing with lowered threshold

     Davidson diagonalization with overlap
     ethr =  1.93E-04,  avg # of iterations =  3.6

     total cpu time spent up to now is        7.9 secs

     total energy              =   -1264.10748512 Ry
     Harris-Foulkes estimate   =   -1264.11366015 Ry
     estimated scf accuracy    <       0.18057012 Ry

     iteration #  2     ecut=    34.00 Ry     beta= 0.10
     Davidson diagonalization with overlap
     ethr =  1.88E-04,  avg # of iterations =  1.0

     total cpu time spent up to now is        9.7 secs

     total energy              =   -1264.06045732 Ry
     Harris-Foulkes estimate   =   -1264.10829773 Ry
     estimated scf accuracy    <       0.15686150 Ry

     iteration #  3     ecut=    34.00 Ry     beta= 0.10
     Davidson diagonalization with overlap
     ethr =  1.63E-04,  avg # of iterations =  1.0

     total cpu time spent up to now is       11.4 secs

     total energy              =   -1264.06342593 Ry
     Harris-Foulkes estimate   =   -1264.06352168 Ry
     estimated scf accuracy    <       0.00063605 Ry

     iteration #  4     ecut=    34.00 Ry     beta= 0.10
     Davidson diagonalization with overlap
     c_bands:  1 eigenvalues not converged
     ethr =  6.63E-07,  avg # of iterations =  5.1

     total cpu time spent up to now is       15.1 secs

     total energy              =   -1264.06401731 Ry
     Harris-Foulkes estimate   =   -1264.06420120 Ry
     estimated scf accuracy    <       0.00034971 Ry

     iteration #  5     ecut=    34.00 Ry     beta= 0.10
     Davidson diagonalization with overlap
     ethr =  3.64E-07,  avg # of iterations =  1.6

     total cpu time spent up to now is       16.9 secs

     total energy              =   -1264.06382415 Ry
     Harris-Foulkes estimate   =   -1264.06402747 Ry
     estimated scf accuracy    <       0.00022929 Ry

     iteration #  6     ecut=    34.00 Ry     beta= 0.10
     Davidson diagonalization with overlap
     ethr =  2.39E-07,  avg # of iterations =  2.0

     total cpu time spent up to now is       19.4 secs

     total energy              =   -1264.06388739 Ry
     Harris-Foulkes estimate   =   -1264.06388860 Ry
     estimated scf accuracy    <       0.00001462 Ry

     iteration #  7     ecut=    34.00 Ry     beta= 0.10
     Davidson diagonalization with overlap
     ethr =  1.52E-08,  avg # of iterations =  2.2

     total cpu time spent up to now is       21.4 secs

     total energy              =   -1264.06387857 Ry
     Harris-Foulkes estimate   =   -1264.06388829 Ry
     estimated scf accuracy    <       0.00000583 Ry

     iteration #  8     ecut=    34.00 Ry     beta= 0.10
     Davidson diagonalization with overlap
     ethr =  6.07E-09,  avg # of iterations =  2.3

     total cpu time spent up to now is       23.6 secs

     total energy              =   -1264.06387971 Ry
     Harris-Foulkes estimate   =   -1264.06387932 Ry
     estimated scf accuracy    <       0.00000117 Ry

     iteration #  9     ecut=    34.00 Ry     beta= 0.10
     Davidson diagonalization with overlap
     ethr =  1.22E-09,  avg # of iterations =  2.2

     total cpu time spent up to now is       25.6 secs

     End of self-consistent calculation

          k = 0.1667 0.1667 0.1667 ( 11903 PWs)   bands (ev):

    -3.0434  -1.5443  -1.5418  -1.5388  -0.0595  -0.0587  -0.0565  -0.0553
    -0.0540  -0.0504   1.4109   1.4121   1.4143   1.4155   1.4166   1.4173
     1.4194   2.8651   2.8669   2.8683   2.8690   2.8709   2.8734   4.2330
     4.2337   4.2344   4.3300   4.3308   4.3316   5.6415   5.6418   5.6448
     5.6455   5.6469   5.6482   5.7582   7.0590   7.0594   7.0611   7.0628
     7.0637   7.0645   7.0725   7.0750   7.0782   7.4049   7.4056   7.4064
     8.4763   8.4769   8.4786   8.4799   8.4812   8.4818   8.8161   8.8177
     8.8188   8.8208

          k = 0.1667 0.1667-0.5000 ( 11914 PWs)   bands (ev):

    -2.5423  -2.5398  -1.0463  -1.0455  -1.0439  -1.0423   0.4325   0.4343
     0.4359   0.4370   0.4386   0.4392   1.8947   1.8959   1.9005   1.9012
     1.9031   1.9038   3.3436   3.3446   3.3451   3.3454   3.3477   3.3496
     4.7050   4.7055   4.7075   4.7083   4.7717   4.7730   4.7730   4.7742
     4.8022   4.8034   6.1386   6.1393   6.1410   6.1427   6.2228   6.2233
     6.2241   6.2250   7.5390   7.5396   7.5413   7.5430   7.6403   7.6417
     7.8541   7.8548   7.8565   7.8575   8.9778   8.9781   8.9793   8.9800
     9.3378   9.3396

          k = 0.1667-0.5000-0.5000 ( 11948 PWs)   bands (ev):

    -2.0428  -2.0418  -2.0394  -2.0380  -0.5514  -0.5504  -0.5479  -0.5465
     0.9241   0.9251   0.9275   0.9289   2.3765   2.3779   2.3786   2.3795
     2.3804   2.3826   2.3836   2.3843   3.8162   3.8176   3.8183   3.8193
     3.8201   3.8224   3.8233   3.8240   5.1713   5.1724   5.1750   5.1765
     5.2750   5.2763   5.2770   5.2779   5.2790   5.2810   5.2821   5.2828
     6.6674   6.6680   6.6692   6.6700   8.0989   8.0995   8.1007   8.1015
     8.4097   8.4106   8.4127   8.4140   9.3875   9.3889   9.3904   9.3915
     9.3935   9.3952

          k =-0.5000-0.5000-0.5000 ( 11992 PWs)   bands (ev):

    -1.5464  -1.5456  -1.5430  -1.5424  -1.5412  -1.5393  -1.5389  -1.5362
     2.8558   2.8562   2.8574   2.8580   2.8593   2.8602   2.8604   2.8614
     2.8617   2.8623   2.8626   2.8632   2.8636   2.8639   2.8646   2.8647
     2.8656   2.8665   2.8671   2.8674   2.8682   2.8697   2.8712   2.8733
     7.1481   7.1491   7.1498   7.1504   7.1515   7.1521   7.1526   7.1529
     7.1530   7.1537   7.1549   7.1554   7.1561   7.1563   7.1566   7.1573
     7.1577   7.1584   7.1588   7.1590   7.1600   7.1607   7.1624   7.1626
    11.3517  11.3532

          k =-0.1667-0.1667 0.1667 ( 11903 PWs)   bands (ev):

    -3.0434  -1.5437  -1.5418  -1.5393  -0.0593  -0.0579  -0.0566  -0.0552
    -0.0528  -0.0525   1.4104   1.4136   1.4140   1.4150   1.4163   1.4172
     1.4196   2.8660   2.8670   2.8677   2.8690   2.8706   2.8732   4.2333
     4.2337   4.2341   4.3303   4.3308   4.3312   5.6406   5.6436   5.6441
     5.6452   5.6469   5.6484   5.7582   7.0591   7.0605   7.0613   7.0623
     7.0632   7.0641   7.0730   7.0750   7.0776   7.4052   7.4056   7.4061
     8.4766   8.4778   8.4788   8.4796   8.4803   8.4817   8.8160   8.8175
     8.8187   8.8198

          k =-0.1667 0.1667-0.1667 ( 11903 PWs)   bands (ev):

    -3.0434  -1.5443  -1.5417  -1.5390  -0.0597  -0.0583  -0.0561  -0.0550
    -0.0534  -0.0518   1.4114   1.4121   1.4137   1.4148   1.4168   1.4180
     1.4193   2.8664   2.8668   2.8675   2.8689   2.8710   2.8731   4.2329
     4.2337   4.2344   4.3299   4.3308   4.3316   5.6417   5.6423   5.6435
     5.6448   5.6474   5.6491   5.7583   7.0591   7.0600   7.0607   7.0626
     7.0636   7.0646   7.0725   7.0751   7.0778   7.4048   7.4056   7.4065
     8.4765   8.4773   8.4781   8.4802   8.4808   8.4818   8.8165   8.8174
     8.8181   8.8203

          k = 0.1667-0.1667-0.1667 ( 11903 PWs)   bands (ev):

    -3.0434  -1.5439  -1.5423  -1.5387  -0.0597  -0.0579  -0.0565  -0.0559
    -0.0546  -0.0496   1.4115   1.4121   1.4131   1.4151   1.4162   1.4169
     1.4212   2.8653   2.8665   2.8676   2.8695   2.8704   2.8743   4.2328
     4.2337   4.2345   4.3298   4.3308   4.3317   5.6414   5.6425   5.6439
     5.6453   5.6466   5.6491   5.7582   7.0587   7.0602   7.0607   7.0624
     7.0630   7.0648   7.0732   7.0748   7.0782   7.4047   7.4056   7.4066
     8.4759   8.4777   8.4783   8.4802   8.4806   8.4820   8.8159   8.8169
     8.8185   8.8193

          k =-0.1667 0.1667 0.5000 ( 11914 PWs)   bands (ev):

    -2.5423  -2.5398  -1.0469  -1.0449  -1.0444  -1.0420   0.4328   0.4337
     0.4355   0.4371   0.4385   0.4399   1.8944   1.8958   1.9004   1.9016
     1.9028   1.9042   3.3433   3.3445   3.3452   3.3464   3.3473   3.3494
     4.7046   4.7060   4.7073   4.7085   4.7714   4.7725   4.7733   4.7745
     4.8023   4.8035   6.1380   6.1401   6.1406   6.1431   6.2223   6.2235
     6.2242   6.2252   7.5388   7.5399   7.5414   7.5428   7.6403   7.6417
     7.8536   7.8553   7.8562   7.8578   8.9775   8.9784   8.9793   8.9801
     9.3374   9.3388

          k =-0.5000-0.1667 0.1667 ( 11914 PWs)   bands (ev):

    -2.5424  -2.5397  -1.0475  -1.0447  -1.0439  -1.0421   0.4328   0.4348
     0.4356   0.4370   0.4380   0.4394   1.8946   1.8957   1.9007   1.9011
     1.9029   1.9042   3.3431   3.3444   3.3455   3.3466   3.3471   3.3493
     4.7051   4.7053   4.7073   4.7087   4.7712   4.7724   4.7736   4.7748
     4.8021   4.8035   6.1374   6.1402   6.1411   6.1430   6.2227   6.2234
     6.2237   6.2255   7.5383   7.5400   7.5418   7.5428   7.6403   7.6417
     7.8541   7.8546   7.8562   7.8579   8.9773   8.9785   8.9788   8.9807
     9.3365   9.3398

          k = 0.5000-0.1667-0.1667 ( 11914 PWs)   bands (ev):

    -2.5424  -2.5397  -1.0478  -1.0446  -1.0439  -1.0418   0.4316   0.4344
     0.4353   0.4370   0.4379   0.4412   1.8947   1.8955   1.9001   1.9016
     1.9032   1.9041   3.3425   3.3438   3.3455   3.3465   3.3477   3.3499
     4.7046   4.7058   4.7074   4.7085   4.7705   4.7719   4.7741   4.7752
     4.8022   4.8036   6.1371   6.1403   6.1410   6.1433   6.2224   6.2236
     6.2242   6.2252   7.5385   7.5398   7.5409   7.5435   7.6403   7.6417
     7.8536   7.8551   7.8564   7.8578   8.9774   8.9784   8.9794   8.9801
     9.3368   9.3401

          k =-0.1667-0.5000 0.1667 ( 11914 PWs)   bands (ev):

    -2.5413  -2.5408  -1.0467  -1.0462  -1.0434  -1.0418   0.4331   0.4338
     0.4357   0.4361   0.4383   0.4404   1.8948   1.8954   1.9017   1.9019
     1.9024   1.9029   3.3430   3.3432   3.3464   3.3469   3.3479   3.3487
     4.7063   4.7063   4.7068   4.7070   4.7710   4.7712   4.7745   4.7750
     4.8027   4.8031   6.1382   6.1387   6.1415   6.1432   6.2235   6.2236
     6.2240   6.2241   7.5391   7.5403   7.5414   7.5420   7.6408   7.6412
     7.8553   7.8554   7.8560   7.8561   8.9785   8.9786   8.9791   8.9791
     9.3378   9.3386

          k =-0.1667 0.5000-0.1667 ( 11914 PWs)   bands (ev):

    -2.5413  -2.5408  -1.0470  -1.0464  -1.0428  -1.0419   0.4331   0.4340
     0.4361   0.4369   0.4378   0.4395   1.8948   1.8953   1.9018   1.9021
     1.9022   1.9031   3.3425   3.3430   3.3464   3.3469   3.3484   3.3488
     4.7062   4.7063   4.7064   4.7075   4.7706   4.7709   4.7751   4.7754
     4.8026   4.8029   6.1379   6.1385   6.1421   6.1431   6.2232   6.2236
     6.2237   6.2248   7.5394   7.5399   7.5414   7.5422   7.6408   7.6412
     7.8552   7.8554   7.8555   7.8567   8.9782   8.9784   8.9789   8.9798
     9.3377   9.3391

          k =-0.5000 0.1667 0.5000 ( 11948 PWs)   bands (ev):

    -2.0442  -2.0415  -2.0392  -2.0370  -0.5528  -0.5501  -0.5478  -0.5455
     0.9226   0.9253   0.9276   0.9299   2.3761   2.3768   2.3782   2.3806
     2.3815   2.3819   2.3831   2.3851   3.8158   3.8164   3.8179   3.8203
     3.8213   3.8216   3.8229   3.8249   5.1699   5.1727   5.1752   5.1776
     5.2744   5.2753   5.2766   5.2790   5.2799   5.2806   5.2816   5.2837
     6.6668   6.6681   6.6694   6.6704   8.0982   8.0997   8.1008   8.1020
     8.4084   8.4110   8.4128   8.4149   9.3871   9.3878   9.3900   9.3928
     9.3938   9.3956

          k =-0.5000 0.5000 0.1667 ( 11948 PWs)   bands (ev):

    -2.0426  -2.0415  -2.0390  -2.0389  -0.5512  -0.5501  -0.5476  -0.5474
     0.9243   0.9254   0.9279   0.9280   2.3766   2.3780   2.3786   2.3800
     2.3807   2.3824   2.3832   2.3838   3.8163   3.8177   3.8182   3.8198
     3.8204   3.8220   3.8230   3.8236   5.1716   5.1728   5.1754   5.1755
     5.2751   5.2764   5.2771   5.2784   5.2792   5.2809   5.2816   5.2823
     6.6676   6.6682   6.6694   6.6695   8.0990   8.0996   8.1009   8.1011
     8.4099   8.4108   8.4132   8.4132   9.3873   9.3897   9.3901   9.3914
     9.3929   9.3953

     the Fermi energy is     7.8159 ev

!    total energy              =   -1264.06387940 Ry
     Harris-Foulkes estimate   =   -1264.06387980 Ry
     estimated scf accuracy    <       0.00000031 Ry

     total all-electron energy =    -15540.632901 Ry

     The total energy is the sum of the following terms:

     one-electron contribution =     101.26129092 Ry
     hartree contribution      =       0.20239900 Ry
     xc contribution           =     -82.91796086 Ry
     ewald contribution        =    -172.93188273 Ry
     one-center paw contrib.   =   -1109.68039725 Ry
     smearing contrib. (-TS)   =       0.00267152 Ry

     convergence has been achieved in   9 iterations

     Forces acting on atoms (cartesian axes, Ry/au):

     atom    1 type  1   force =    -0.00000666    0.00000273    0.00001804
     atom    2 type  1   force =    -0.00009173    0.00022130    0.00008327
     atom    3 type  1   force =     0.00022322   -0.00003172   -0.00051591
     atom    4 type  1   force =    -0.00005653   -0.00016024   -0.00034990
     atom    5 type  1   force =    -0.00043809   -0.00039639    0.00032296
     atom    6 type  1   force =    -0.00014901    0.00043497    0.00000435
     atom    7 type  1   force =    -0.00015029   -0.00055321    0.00032670
     atom    8 type  1   force =     0.00001849   -0.00007523   -0.00025866
     atom    9 type  1   force =     0.00000891   -0.00007624    0.00011686
     atom   10 type  1   force =    -0.00016663   -0.00009393   -0.00068865
     atom   11 type  1   force =    -0.00024549   -0.00025600   -0.00039608
     atom   12 type  1   force =    -0.00008672    0.00002655   -0.00006972
     atom   13 type  1   force =    -0.00019546   -0.00032969   -0.00002486
     atom   14 type  1   force =    -0.00002960    0.00014716    0.00042591
     atom   15 type  1   force =    -0.00050909    0.00032646    0.00051878
     atom   16 type  1   force =     0.00062661    0.00048965    0.00013922
     atom   17 type  1   force =    -0.00044202    0.00002192    0.00009883
     atom   18 type  1   force =     0.00020817   -0.00003913    0.00042478
     atom   19 type  1   force =     0.00052623    0.00023516   -0.00009068
     atom   20 type  1   force =     0.00007182    0.00021611    0.00006432
     atom   21 type  1   force =     0.00019258   -0.00054439    0.00011776
     atom   22 type  1   force =    -0.00014591    0.00059574    0.00012845
     atom   23 type  1   force =     0.00011894   -0.00010785   -0.00022251
     atom   24 type  1   force =     0.00013180    0.00013923   -0.00008964
     atom   25 type  1   force =     0.00010682   -0.00016395    0.00033657
     atom   26 type  1   force =     0.00031266   -0.00023383   -0.00024646
     atom   27 type  1   force =    -0.00015821    0.00001629    0.00011074
     atom   28 type  1   force =    -0.00008982    0.00023940   -0.00006492
     atom   29 type  1   force =     0.00083513   -0.00033614   -0.00009229
     atom   30 type  1   force =    -0.00025880    0.00003700    0.00025339
     atom   31 type  1   force =    -0.00008576   -0.00004264   -0.00034795
     atom   32 type  1   force =    -0.00007557    0.00029093   -0.00003271

     Total force =     0.002739     Total SCF correction =     0.000510
     SCF correction compared to forces is large: reduce conv_thr to get better values


     Computing stress (Cartesian axis) and pressure

          total   stress  (Ry/bohr**3)                   (kbar)     P=   -1.16
  -0.00000788   0.00000000   0.00000000         -1.16      0.00      0.00
   0.00000000  -0.00000788  -0.00000000          0.00     -1.16     -0.00
   0.00000000  -0.00000000  -0.00000789          0.00     -0.00     -1.16


     Writing output data file fe_scf_fcc_2.save/
 
     init_run     :      1.60s CPU      1.68s WALL (       1 calls)
     electrons    :     22.62s CPU     23.15s WALL (       1 calls)
     forces       :      0.36s CPU      0.37s WALL (       1 calls)
     stress       :      1.48s CPU      1.50s WALL (       1 calls)

     Called by init_run:
     wfcinit      :      1.34s CPU      1.39s WALL (       1 calls)
     potinit      :      0.11s CPU      0.12s WALL (       1 calls)
     hinit0       :      0.13s CPU      0.15s WALL (       1 calls)

     Called by electrons:
     c_bands      :     19.01s CPU     19.44s WALL (      10 calls)
     sum_band     :      2.56s CPU      2.63s WALL (      10 calls)
     v_of_rho     :      0.07s CPU      0.08s WALL (      10 calls)
     newd         :      0.06s CPU      0.06s WALL (      10 calls)
     PAW_pot      :      0.97s CPU      0.97s WALL (      10 calls)
     mix_rho      :      0.02s CPU      0.02s WALL (      10 calls)

     Called by c_bands:
     init_us_2    :      0.49s CPU      0.50s WALL (     322 calls)
     cegterg      :     17.69s CPU     18.11s WALL (     140 calls)

     Called by sum_band:
     sum_band:bec :      0.03s CPU      0.03s WALL (     140 calls)
     addusdens    :      0.05s CPU      0.05s WALL (      10 calls)

     Called by *egterg:
     h_psi        :     12.10s CPU     12.46s WALL (     491 calls)
     s_psi        :      1.27s CPU      1.28s WALL (     491 calls)
     g_psi        :      0.05s CPU      0.06s WALL (     337 calls)
     cdiaghg      :      2.99s CPU      3.01s WALL (     463 calls)

     Called by h_psi:
     h_psi:pot    :     12.02s CPU     12.38s WALL (     491 calls)
     h_psi:calbec :      1.31s CPU      1.37s WALL (     491 calls)
     vloc_psi     :      9.40s CPU      9.68s WALL (     491 calls)
     add_vuspsi   :      1.31s CPU      1.32s WALL (     491 calls)

     General routines
     calbec       :      2.10s CPU      2.19s WALL (     701 calls)
     fft          :      0.17s CPU      0.18s WALL (     137 calls)
     ffts         :      0.01s CPU      0.01s WALL (      10 calls)
     fftw         :     10.40s CPU     10.71s WALL (   53214 calls)
 
     Parallel routines
     fft_scatt_xy :      0.94s CPU      0.96s WALL (   53361 calls)
     fft_scatt_yz :      5.75s CPU      5.93s WALL (   53361 calls)
 
     PWSCF        :    26.97s CPU        27.84s WALL

 
   This run was terminated on:   1: 0:52  12Mar2020            

=------------------------------------------------------------------------------=
   JOB DONE.
=------------------------------------------------------------------------------=
