
     Program PWSCF v.6.3 starts on 12Mar2020 at  1: 0:52 

     This program is part of the open-source Quantum ESPRESSO suite
     for quantum simulation of materials; please cite
         "P. Giannozzi et al., J. Phys.:Condens. Matter 21 395502 (2009);
         "P. Giannozzi et al., J. Phys.:Condens. Matter 29 465901 (2017);
          URL http://www.quantum-espresso.org", 
     in publications or presentations arising from this work. More details at
     http://www.quantum-espresso.org/quote

     Parallel version (MPI & OpenMP), running on      20 processor cores
     Number of MPI processes:                20
     Threads/MPI process:                     1

     MPI processes distributed on     1 nodes
     R & G space division:  proc/nbgrp/npool/nimage =      20
     Reading input from wd/ecut/file_000046.in
Warning: card &IONS ignored
Warning: card ION_DYNAMICS = 'BFGS', ignored
Warning: card / ignored
Warning: card &CELL ignored
Warning: card CELL_DYNAMICS = 'BFGS', ignored
Warning: card CELL_FACTOR = 2.0, ignored
Warning: card PRESS = 0.0, ignored
Warning: card / ignored

     Current dimensions of program PWSCF are:
     Max number of different atomic species (ntypx) = 10
     Max number of k-points (npk) =  40000
     Max angular momentum in pseudopotentials (lmaxx) =  3
     Message from routine read_upf::
     Pseudo file /rds/homes/b/bxp912/pp/Al.pbe-nl-kjpaw_psl.1.0.0.UPF has been successfully fixed on the fly.
To avoid this message in the future you can permanently fix 
 your pseudo files following instructions given in: 
https://gitlab.com/QEF/q-e/blob/master/upftools/how_to_fix_upf.md
               file Al.pbe-nl-kjpaw_psl.1.0.0.UPF: wavefunction(s)  3S 3P renormalized

     Subspace diagonalization in iterative solution of the eigenvalue problem:
     a serial algorithm will be used

 
     Parallelization info
     --------------------
     sticks:   dense  smooth     PW     G-vecs:    dense   smooth      PW
     Min          97      97     34                 3229     3229     680
     Max          98      98     35                 3232     3232     683
     Sum        1941    1941    681                64589    64589   13613
 


     bravais-lattice index     =            0
     lattice parameter (alat)  =      15.2712  a.u.
     unit-cell volume          =    3561.3897 (a.u.)^3
     number of atoms/cell      =           32
     number of atomic types    =            1
     number of electrons       =        96.00
     number of Kohn-Sham states=           58
     kinetic-energy cutoff     =      33.0000  Ry
     charge density cutoff     =     105.0000  Ry
     convergence threshold     =      1.0E-06
     mixing beta               =       0.1000
     number of iterations used =           10  TF        mixing
     Exchange-correlation      = SLA PW PBX PBC ( 1  4  3  4 0 0)

     celldm(1)=  15.271200  celldm(2)=   0.000000  celldm(3)=   0.000000
     celldm(4)=   0.000000  celldm(5)=   0.000000  celldm(6)=   0.000000

     crystal axes: (cart. coord. in units of alat)
               a(1) = (   1.000000   0.000000   0.000000 )  
               a(2) = (   0.000000   1.000000   0.000000 )  
               a(3) = (   0.000000   0.000000   1.000000 )  

     reciprocal axes: (cart. coord. in units 2 pi/alat)
               b(1) = (  1.000000  0.000000  0.000000 )  
               b(2) = (  0.000000  1.000000  0.000000 )  
               b(3) = (  0.000000  0.000000  1.000000 )  


     PseudoPot. # 1 for Al read from file:
     /rds/homes/b/bxp912/pp/Al.pbe-nl-kjpaw_psl.1.0.0.UPF
     MD5 check sum: 339dbea23cf3ab9a065ad45c0f9085d7
     Pseudo is Projector augmented-wave + core cor, Zval =  3.0
     Generated using "atomic" code by A. Dal Corso v.5.1
     Shape of augmentation charge: PSQ
     Using radial grid of 1135 points,  4 beta functions with: 
                l(1) =   0
                l(2) =   0
                l(3) =   1
                l(4) =   1
     Q(r) pseudized with 0 coefficients 


     atomic species   valence    mass     pseudopotential
        Al             3.00    26.98200     Al( 1.00)

     No symmetry found



   Cartesian axes

     site n.     atom                  positions (alat units)
         1           Al  tau(   1) = (  -0.0000327   0.0000095   0.0000680  )
         2           Al  tau(   2) = (   0.2500796   0.2498100   0.0000703  )
         3           Al  tau(   3) = (   0.2499071   0.0000305   0.2502955  )
         4           Al  tau(   4) = (  -0.0000200   0.2502187   0.2501837  )
         5           Al  tau(   5) = (   0.0002558   0.0002521   0.4998810  )
         6           Al  tau(   6) = (   0.2501194   0.2498326   0.5000036  )
         7           Al  tau(   7) = (   0.2500278   0.0001539   0.7498880  )
         8           Al  tau(   8) = (   0.0000549   0.2501136   0.7502101  )
         9           Al  tau(   9) = (   0.0002375   0.5001078  -0.0000154  )
        10           Al  tau(  10) = (   0.2501396   0.7501762   0.0004054  )
        11           Al  tau(  11) = (   0.2501891   0.5001088   0.2502510  )
        12           Al  tau(  12) = (   0.0000383   0.7500455   0.2500253  )
        13           Al  tau(  13) = (   0.0001102   0.5001562   0.5000990  )
        14           Al  tau(  14) = (   0.2499640   0.7500632   0.4998706  )
        15           Al  tau(  15) = (   0.2503366   0.4997894   0.7496960  )
        16           Al  tau(  16) = (  -0.0003280   0.7497055   0.7499931  )
        17           Al  tau(  17) = (   0.5002037  -0.0001004  -0.0000387  )
        18           Al  tau(  18) = (   0.7499123   0.2500941  -0.0002332  )
        19           Al  tau(  19) = (   0.7496354  -0.0000959   0.2500771  )
        20           Al  tau(  20) = (   0.4999751   0.2499614   0.2498317  )
        21           Al  tau(  21) = (   0.4999211   0.0002929   0.4999726  )
        22           Al  tau(  22) = (   0.7500684   0.2496958   0.4999523  )
        23           Al  tau(  23) = (   0.7500357  -0.0000687   0.7500257  )
        24           Al  tau(  24) = (   0.5000114   0.2498864   0.7499948  )
        25           Al  tau(  25) = (   0.4998526   0.5001156  -0.0002192  )
        26           Al  tau(  26) = (   0.7497723   0.7500978   0.0002736  )
        27           Al  tau(  27) = (   0.7501007   0.4998018   0.2499462  )
        28           Al  tau(  28) = (   0.5000878   0.7497908   0.2502093  )
        29           Al  tau(  29) = (   0.4996761   0.5001027   0.5000404  )
        30           Al  tau(  30) = (   0.7501658   0.7499872   0.4998547  )
        31           Al  tau(  31) = (   0.7499472   0.5000095   0.7501393  )
        32           Al  tau(  32) = (   0.5000142   0.7499486   0.7499177  )

     number of k points=    14  Marzari-Vanderbilt smearing, width (Ry)=  0.0200
                       cart. coord. in units 2pi/alat
        k(    1) = (   0.1666667   0.1666667   0.1666667), wk =   0.1481481
        k(    2) = (   0.1666667   0.1666667  -0.5000000), wk =   0.1481481
        k(    3) = (   0.1666667  -0.5000000  -0.5000000), wk =   0.1481481
        k(    4) = (  -0.5000000  -0.5000000  -0.5000000), wk =   0.0740741
        k(    5) = (  -0.1666667  -0.1666667   0.1666667), wk =   0.1481481
        k(    6) = (  -0.1666667   0.1666667  -0.1666667), wk =   0.1481481
        k(    7) = (   0.1666667  -0.1666667  -0.1666667), wk =   0.1481481
        k(    8) = (  -0.1666667   0.1666667   0.5000000), wk =   0.1481481
        k(    9) = (  -0.5000000  -0.1666667   0.1666667), wk =   0.1481481
        k(   10) = (   0.5000000  -0.1666667  -0.1666667), wk =   0.1481481
        k(   11) = (  -0.1666667  -0.5000000   0.1666667), wk =   0.1481481
        k(   12) = (  -0.1666667   0.5000000  -0.1666667), wk =   0.1481481
        k(   13) = (  -0.5000000   0.1666667   0.5000000), wk =   0.1481481
        k(   14) = (  -0.5000000   0.5000000   0.1666667), wk =   0.1481481

     Dense  grid:    64589 G-vectors     FFT dimensions: (  50,  50,  50)

     Estimated max dynamical RAM per process >      21.16 MB

     Estimated total dynamical RAM >     423.28 MB

     Initial potential from superposition of free atoms

     starting charge   95.92671, renormalised to   96.00000
     Starting wfcs are  128 randomized atomic wfcs
     Checking if some PAW data can be deallocated... 

     total cpu time spent up to now is        2.5 secs

     Self-consistent Calculation

     iteration #  1     ecut=    33.00 Ry     beta= 0.10
     Davidson diagonalization with overlap
     ethr =  1.00E-02,  avg # of iterations =  3.0

     Threshold (ethr) on eigenvalues was too large:
     Diagonalizing with lowered threshold

     Davidson diagonalization with overlap
     ethr =  1.93E-04,  avg # of iterations =  3.6

     total cpu time spent up to now is        7.7 secs

     total energy              =   -1264.10705837 Ry
     Harris-Foulkes estimate   =   -1264.11323434 Ry
     estimated scf accuracy    <       0.18059196 Ry

     iteration #  2     ecut=    33.00 Ry     beta= 0.10
     Davidson diagonalization with overlap
     ethr =  1.88E-04,  avg # of iterations =  1.0

     total cpu time spent up to now is        9.4 secs

     total energy              =   -1264.06003731 Ry
     Harris-Foulkes estimate   =   -1264.10787200 Ry
     estimated scf accuracy    <       0.15686257 Ry

     iteration #  3     ecut=    33.00 Ry     beta= 0.10
     Davidson diagonalization with overlap
     ethr =  1.63E-04,  avg # of iterations =  1.0

     total cpu time spent up to now is       11.1 secs

     total energy              =   -1264.06299536 Ry
     Harris-Foulkes estimate   =   -1264.06309777 Ry
     estimated scf accuracy    <       0.00063109 Ry

     iteration #  4     ecut=    33.00 Ry     beta= 0.10
     Davidson diagonalization with overlap
     ethr =  6.57E-07,  avg # of iterations =  5.0

     total cpu time spent up to now is       14.7 secs

     total energy              =   -1264.06358722 Ry
     Harris-Foulkes estimate   =   -1264.06376775 Ry
     estimated scf accuracy    <       0.00035051 Ry

     iteration #  5     ecut=    33.00 Ry     beta= 0.10
     Davidson diagonalization with overlap
     ethr =  3.65E-07,  avg # of iterations =  1.0

     total cpu time spent up to now is       16.4 secs

     total energy              =   -1264.06339179 Ry
     Harris-Foulkes estimate   =   -1264.06359735 Ry
     estimated scf accuracy    <       0.00023042 Ry

     iteration #  6     ecut=    33.00 Ry     beta= 0.10
     Davidson diagonalization with overlap
     ethr =  2.40E-07,  avg # of iterations =  2.0

     total cpu time spent up to now is       18.8 secs

     total energy              =   -1264.06345520 Ry
     Harris-Foulkes estimate   =   -1264.06345619 Ry
     estimated scf accuracy    <       0.00001414 Ry

     iteration #  7     ecut=    33.00 Ry     beta= 0.10
     Davidson diagonalization with overlap
     ethr =  1.47E-08,  avg # of iterations =  2.1

     total cpu time spent up to now is       20.8 secs

     total energy              =   -1264.06344674 Ry
     Harris-Foulkes estimate   =   -1264.06345609 Ry
     estimated scf accuracy    <       0.00000573 Ry

     iteration #  8     ecut=    33.00 Ry     beta= 0.10
     Davidson diagonalization with overlap
     ethr =  5.96E-09,  avg # of iterations =  2.4

     total cpu time spent up to now is       22.9 secs

     total energy              =   -1264.06344786 Ry
     Harris-Foulkes estimate   =   -1264.06344749 Ry
     estimated scf accuracy    <       0.00000110 Ry

     iteration #  9     ecut=    33.00 Ry     beta= 0.10
     Davidson diagonalization with overlap
     ethr =  1.15E-09,  avg # of iterations =  2.0

     total cpu time spent up to now is       24.8 secs

     End of self-consistent calculation

          k = 0.1667 0.1667 0.1667 ( 11392 PWs)   bands (ev):

    -3.0433  -1.5443  -1.5418  -1.5387  -0.0594  -0.0586  -0.0564  -0.0553
    -0.0539  -0.0503   1.4110   1.4122   1.4144   1.4156   1.4166   1.4173
     1.4195   2.8652   2.8670   2.8683   2.8690   2.8709   2.8735   4.2330
     4.2337   4.2344   4.3301   4.3309   4.3316   5.6416   5.6419   5.6449
     5.6456   5.6470   5.6483   5.7583   7.0592   7.0596   7.0612   7.0630
     7.0639   7.0647   7.0726   7.0751   7.0783   7.4051   7.4058   7.4066
     8.4766   8.4772   8.4788   8.4802   8.4815   8.4820   8.8166   8.8174
     8.8188   8.8206

          k = 0.1667 0.1667-0.5000 ( 11380 PWs)   bands (ev):

    -2.5422  -2.5398  -1.0462  -1.0455  -1.0439  -1.0423   0.4325   0.4343
     0.4360   0.4370   0.4386   0.4393   1.8947   1.8960   1.9006   1.9013
     1.9031   1.9039   3.3437   3.3447   3.3451   3.3454   3.3477   3.3497
     4.7051   4.7056   4.7075   4.7083   4.7718   4.7730   4.7731   4.7742
     4.8023   4.8035   6.1387   6.1395   6.1411   6.1428   6.2230   6.2235
     6.2243   6.2252   7.5392   7.5398   7.5415   7.5431   7.6405   7.6418
     7.8542   7.8549   7.8566   7.8576   8.9780   8.9783   8.9795   8.9803
     9.3379   9.3391

          k = 0.1667-0.5000-0.5000 ( 11400 PWs)   bands (ev):

    -2.0427  -2.0417  -2.0393  -2.0379  -0.5513  -0.5503  -0.5479  -0.5465
     0.9241   0.9251   0.9276   0.9289   2.3766   2.3780   2.3787   2.3796
     2.3805   2.3826   2.3836   2.3843   3.8162   3.8177   3.8184   3.8194
     3.8202   3.8224   3.8234   3.8241   5.1714   5.1725   5.1751   5.1765
     5.2751   5.2764   5.2770   5.2780   5.2791   5.2811   5.2822   5.2828
     6.6676   6.6681   6.6694   6.6701   8.0991   8.0997   8.1009   8.1017
     8.4099   8.4108   8.4130   8.4142   9.3876   9.3901   9.3907   9.3922
     9.3937   9.3947

          k =-0.5000-0.5000-0.5000 ( 11536 PWs)   bands (ev):

    -1.5464  -1.5456  -1.5429  -1.5423  -1.5412  -1.5393  -1.5388  -1.5362
     2.8558   2.8562   2.8575   2.8581   2.8593   2.8603   2.8605   2.8615
     2.8617   2.8624   2.8627   2.8633   2.8636   2.8640   2.8647   2.8648
     2.8657   2.8666   2.8672   2.8674   2.8682   2.8698   2.8712   2.8733
     7.1482   7.1492   7.1499   7.1505   7.1517   7.1523   7.1527   7.1530
     7.1531   7.1538   7.1550   7.1555   7.1562   7.1564   7.1567   7.1574
     7.1578   7.1585   7.1589   7.1591   7.1602   7.1608   7.1625   7.1627
    11.3527  11.3538

          k =-0.1667-0.1667 0.1667 ( 11392 PWs)   bands (ev):

    -3.0433  -1.5437  -1.5418  -1.5393  -0.0592  -0.0579  -0.0566  -0.0551
    -0.0528  -0.0525   1.4105   1.4136   1.4141   1.4150   1.4164   1.4173
     1.4196   2.8661   2.8671   2.8678   2.8691   2.8706   2.8732   4.2333
     4.2337   4.2342   4.3304   4.3309   4.3313   5.6406   5.6437   5.6442
     5.6452   5.6470   5.6484   5.7583   7.0593   7.0607   7.0615   7.0625
     7.0633   7.0643   7.0731   7.0752   7.0777   7.4054   7.4058   7.4063
     8.4769   8.4781   8.4791   8.4798   8.4805   8.4819   8.8160   8.8184
     8.8199   8.8204

          k =-0.1667 0.1667-0.1667 ( 11392 PWs)   bands (ev):

    -3.0433  -1.5442  -1.5416  -1.5390  -0.0597  -0.0582  -0.0560  -0.0549
    -0.0534  -0.0518   1.4115   1.4121   1.4137   1.4149   1.4169   1.4180
     1.4194   2.8664   2.8668   2.8676   2.8689   2.8711   2.8731   4.2330
     4.2337   4.2345   4.3300   4.3309   4.3317   5.6417   5.6423   5.6436
     5.6449   5.6475   5.6491   5.7583   7.0593   7.0602   7.0609   7.0627
     7.0638   7.0648   7.0727   7.0752   7.0779   7.4050   7.4058   7.4066
     8.4768   8.4776   8.4784   8.4804   8.4811   8.4821   8.8170   8.8183
     8.8186   8.8206

          k = 0.1667-0.1667-0.1667 ( 11392 PWs)   bands (ev):

    -3.0433  -1.5439  -1.5422  -1.5387  -0.0597  -0.0579  -0.0565  -0.0559
    -0.0546  -0.0496   1.4116   1.4122   1.4132   1.4152   1.4162   1.4169
     1.4212   2.8654   2.8665   2.8677   2.8695   2.8705   2.8743   4.2329
     4.2337   4.2346   4.3299   4.3309   4.3318   5.6415   5.6426   5.6440
     5.6453   5.6467   5.6492   5.7583   7.0589   7.0604   7.0609   7.0626
     7.0632   7.0650   7.0734   7.0749   7.0784   7.4049   7.4058   7.4067
     8.4762   8.4780   8.4786   8.4804   8.4809   8.4822   8.8166   8.8183
     8.8190   8.8205

          k =-0.1667 0.1667 0.5000 ( 11380 PWs)   bands (ev):

    -2.5422  -2.5398  -1.0468  -1.0448  -1.0443  -1.0419   0.4328   0.4338
     0.4356   0.4371   0.4386   0.4399   1.8945   1.8958   1.9005   1.9017
     1.9029   1.9042   3.3433   3.3445   3.3452   3.3464   3.3474   3.3494
     4.7047   4.7060   4.7073   4.7086   4.7714   4.7726   4.7734   4.7746
     4.8023   4.8036   6.1381   6.1402   6.1407   6.1432   6.2225   6.2237
     6.2243   6.2254   7.5390   7.5401   7.5416   7.5430   7.6404   7.6418
     7.8537   7.8554   7.8563   7.8579   8.9777   8.9786   8.9795   8.9803
     9.3377   9.3389

          k =-0.5000-0.1667 0.1667 ( 11380 PWs)   bands (ev):

    -2.5423  -2.5397  -1.0474  -1.0446  -1.0438  -1.0420   0.4329   0.4348
     0.4356   0.4370   0.4380   0.4394   1.8947   1.8957   1.9007   1.9012
     1.9030   1.9043   3.3432   3.3444   3.3455   3.3466   3.3471   3.3494
     4.7051   4.7054   4.7074   4.7087   4.7712   4.7725   4.7736   4.7748
     4.8021   4.8035   6.1375   6.1403   6.1413   6.1431   6.2228   6.2235
     6.2239   6.2256   7.5385   7.5402   7.5419   7.5429   7.6404   7.6418
     7.8542   7.8547   7.8563   7.8581   8.9775   8.9787   8.9790   8.9809
     9.3374   9.3393

          k = 0.5000-0.1667-0.1667 ( 11380 PWs)   bands (ev):

    -2.5423  -2.5397  -1.0477  -1.0446  -1.0439  -1.0417   0.4316   0.4344
     0.4354   0.4370   0.4380   0.4413   1.8948   1.8956   1.9002   1.9017
     1.9033   1.9041   3.3426   3.3439   3.3456   3.3466   3.3477   3.3500
     4.7047   4.7058   4.7075   4.7086   4.7706   4.7720   4.7741   4.7752
     4.8023   4.8037   6.1372   6.1404   6.1411   6.1434   6.2225   6.2237
     6.2243   6.2254   7.5387   7.5400   7.5411   7.5437   7.6404   7.6418
     7.8537   7.8552   7.8565   7.8579   8.9777   8.9786   8.9796   8.9803
     9.3368   9.3384

          k =-0.1667-0.5000 0.1667 ( 11380 PWs)   bands (ev):

    -2.5413  -2.5407  -1.0466  -1.0461  -1.0434  -1.0417   0.4332   0.4339
     0.4358   0.4361   0.4384   0.4405   1.8949   1.8955   1.9018   1.9020
     1.9025   1.9029   3.3430   3.3433   3.3465   3.3469   3.3480   3.3487
     4.7063   4.7064   4.7069   4.7070   4.7711   4.7712   4.7746   4.7751
     4.8028   4.8031   6.1383   6.1388   6.1417   6.1433   6.2237   6.2238
     6.2242   6.2243   7.5392   7.5405   7.5416   7.5422   7.6409   7.6413
     7.8555   7.8556   7.8561   7.8562   8.9787   8.9788   8.9793   8.9794
     9.3377   9.3400

          k =-0.1667 0.5000-0.1667 ( 11380 PWs)   bands (ev):

    -2.5413  -2.5407  -1.0469  -1.0464  -1.0428  -1.0418   0.4331   0.4340
     0.4362   0.4370   0.4379   0.4396   1.8948   1.8954   1.9018   1.9021
     1.9023   1.9032   3.3426   3.3430   3.3465   3.3470   3.3485   3.3488
     4.7063   4.7063   4.7064   4.7075   4.7707   4.7710   4.7751   4.7754
     4.8026   4.8030   6.1380   6.1386   6.1422   6.1432   6.2234   6.2238
     6.2238   6.2250   7.5395   7.5401   7.5415   7.5424   7.6409   7.6413
     7.8553   7.8555   7.8556   7.8569   8.9784   8.9786   8.9791   8.9800
     9.3379   9.3401

          k =-0.5000 0.1667 0.5000 ( 11400 PWs)   bands (ev):

    -2.0442  -2.0415  -2.0392  -2.0369  -0.5528  -0.5500  -0.5477  -0.5455
     0.9227   0.9254   0.9277   0.9299   2.3762   2.3768   2.3783   2.3806
     2.3816   2.3820   2.3832   2.3852   3.8158   3.8165   3.8180   3.8203
     3.8214   3.8217   3.8230   3.8249   5.1699   5.1727   5.1753   5.1776
     5.2745   5.2754   5.2767   5.2791   5.2800   5.2807   5.2817   5.2838
     6.6669   6.6682   6.6695   6.6706   8.0984   8.0999   8.1010   8.1022
     8.4086   8.4112   8.4130   8.4151   9.3874   9.3883   9.3905   9.3925
     9.3935   9.3947

          k =-0.5000 0.5000 0.1667 ( 11400 PWs)   bands (ev):

    -2.0425  -2.0414  -2.0390  -2.0388  -0.5511  -0.5500  -0.5475  -0.5474
     0.9243   0.9254   0.9279   0.9281   2.3767   2.3781   2.3786   2.3801
     2.3808   2.3824   2.3833   2.3839   3.8164   3.8178   3.8183   3.8199
     3.8205   3.8221   3.8231   3.8237   5.1716   5.1728   5.1754   5.1756
     5.2752   5.2765   5.2772   5.2785   5.2793   5.2810   5.2816   5.2824
     6.6677   6.6683   6.6695   6.6696   8.0992   8.0999   8.1012   8.1013
     8.4101   8.4111   8.4133   8.4135   9.3882   9.3896   9.3902   9.3924
     9.3934   9.3959

     the Fermi energy is     7.8161 ev

!    total energy              =   -1264.06344758 Ry
     Harris-Foulkes estimate   =   -1264.06344794 Ry
     estimated scf accuracy    <       0.00000029 Ry

     total all-electron energy =    -15540.632470 Ry

     The total energy is the sum of the following terms:

     one-electron contribution =     101.26238100 Ry
     hartree contribution      =       0.20240026 Ry
     xc contribution           =     -82.91814296 Ry
     ewald contribution        =    -172.93188273 Ry
     one-center paw contrib.   =   -1109.68087493 Ry
     smearing contrib. (-TS)   =       0.00267177 Ry

     convergence has been achieved in   9 iterations

     Forces acting on atoms (cartesian axes, Ry/au):

     atom    1 type  1   force =    -0.00000633    0.00000333    0.00001776
     atom    2 type  1   force =    -0.00009271    0.00022085    0.00008277
     atom    3 type  1   force =     0.00022380   -0.00003199   -0.00051532
     atom    4 type  1   force =    -0.00005610   -0.00016037   -0.00034856
     atom    5 type  1   force =    -0.00043764   -0.00039552    0.00032295
     atom    6 type  1   force =    -0.00015090    0.00043514    0.00000411
     atom    7 type  1   force =    -0.00015009   -0.00055307    0.00032609
     atom    8 type  1   force =     0.00001883   -0.00007461   -0.00025930
     atom    9 type  1   force =     0.00000882   -0.00007662    0.00011567
     atom   10 type  1   force =    -0.00016638   -0.00009345   -0.00068729
     atom   11 type  1   force =    -0.00024550   -0.00025501   -0.00039445
     atom   12 type  1   force =    -0.00008606    0.00002639   -0.00006835
     atom   13 type  1   force =    -0.00019440   -0.00033093   -0.00002509
     atom   14 type  1   force =    -0.00002928    0.00014713    0.00042564
     atom   15 type  1   force =    -0.00051024    0.00032680    0.00051792
     atom   16 type  1   force =     0.00062651    0.00048891    0.00013795
     atom   17 type  1   force =    -0.00044053    0.00002209    0.00009912
     atom   18 type  1   force =     0.00020776   -0.00004114    0.00042360
     atom   19 type  1   force =     0.00052551    0.00023534   -0.00009107
     atom   20 type  1   force =     0.00007208    0.00021510    0.00006366
     atom   21 type  1   force =     0.00019196   -0.00054569    0.00011667
     atom   22 type  1   force =    -0.00014338    0.00059550    0.00012950
     atom   23 type  1   force =     0.00011825   -0.00010726   -0.00022124
     atom   24 type  1   force =     0.00013241    0.00013872   -0.00008851
     atom   25 type  1   force =     0.00010657   -0.00016368    0.00033640
     atom   26 type  1   force =     0.00031171   -0.00023314   -0.00024682
     atom   27 type  1   force =    -0.00015858    0.00001704    0.00011174
     atom   28 type  1   force =    -0.00009121    0.00024024   -0.00006535
     atom   29 type  1   force =     0.00083413   -0.00033503   -0.00009290
     atom   30 type  1   force =    -0.00025839    0.00003724    0.00025364
     atom   31 type  1   force =    -0.00008489   -0.00004344   -0.00034780
     atom   32 type  1   force =    -0.00007572    0.00029114   -0.00003316

     Total force =     0.002737     Total SCF correction =     0.000496
     SCF correction compared to forces is large: reduce conv_thr to get better values


     Computing stress (Cartesian axis) and pressure

          total   stress  (Ry/bohr**3)                   (kbar)     P=   -1.20
  -0.00000813   0.00000000   0.00000000         -1.20      0.00      0.00
   0.00000000  -0.00000813   0.00000000          0.00     -1.20      0.00
   0.00000000   0.00000000  -0.00000813          0.00      0.00     -1.20


     Writing output data file fe_scf_fcc_2.save/
 
     init_run     :      1.54s CPU      1.63s WALL (       1 calls)
     electrons    :     21.86s CPU     22.37s WALL (       1 calls)
     forces       :      0.34s CPU      0.36s WALL (       1 calls)
     stress       :      1.38s CPU      1.39s WALL (       1 calls)

     Called by init_run:
     wfcinit      :      1.31s CPU      1.35s WALL (       1 calls)
     potinit      :      0.11s CPU      0.11s WALL (       1 calls)
     hinit0       :      0.10s CPU      0.14s WALL (       1 calls)

     Called by electrons:
     c_bands      :     18.30s CPU     18.70s WALL (      10 calls)
     sum_band     :      2.55s CPU      2.63s WALL (      10 calls)
     v_of_rho     :      0.07s CPU      0.08s WALL (      10 calls)
     newd         :      0.06s CPU      0.06s WALL (      10 calls)
     PAW_pot      :      0.97s CPU      0.98s WALL (      10 calls)
     mix_rho      :      0.02s CPU      0.02s WALL (      10 calls)

     Called by c_bands:
     init_us_2    :      0.50s CPU      0.51s WALL (     322 calls)
     cegterg      :     17.05s CPU     17.44s WALL (     140 calls)

     Called by sum_band:
     sum_band:bec :      0.03s CPU      0.03s WALL (     140 calls)
     addusdens    :      0.05s CPU      0.05s WALL (      10 calls)

     Called by *egterg:
     h_psi        :     11.64s CPU     11.98s WALL (     478 calls)
     s_psi        :      1.20s CPU      1.21s WALL (     478 calls)
     g_psi        :      0.05s CPU      0.05s WALL (     324 calls)
     cdiaghg      :      2.94s CPU      2.95s WALL (     450 calls)

     Called by h_psi:
     h_psi:pot    :     11.56s CPU     11.90s WALL (     478 calls)
     h_psi:calbec :      1.24s CPU      1.31s WALL (     478 calls)
     vloc_psi     :      9.10s CPU      9.34s WALL (     478 calls)
     add_vuspsi   :      1.22s CPU      1.24s WALL (     478 calls)

     General routines
     calbec       :      1.94s CPU      2.04s WALL (     688 calls)
     fft          :      0.15s CPU      0.19s WALL (     137 calls)
     ffts         :      0.01s CPU      0.01s WALL (      10 calls)
     fftw         :     10.09s CPU     10.37s WALL (   53300 calls)
 
     Parallel routines
     fft_scatt_xy :      0.92s CPU      0.95s WALL (   53447 calls)
     fft_scatt_yz :      5.52s CPU      5.67s WALL (   53447 calls)
 
     PWSCF        :    26.08s CPU        26.94s WALL

 
   This run was terminated on:   1: 1:19  12Mar2020            

=------------------------------------------------------------------------------=
   JOB DONE.
=------------------------------------------------------------------------------=
