
     Program PWSCF v.6.4.1 starts on  8Apr2020 at  7:53: 8 

     This program is part of the open-source Quantum ESPRESSO suite
     for quantum simulation of materials; please cite
         "P. Giannozzi et al., J. Phys.:Condens. Matter 21 395502 (2009);
         "P. Giannozzi et al., J. Phys.:Condens. Matter 29 465901 (2017);
          URL http://www.quantum-espresso.org", 
     in publications or presentations arising from this work. More details at
     http://www.quantum-espresso.org/quote

     Parallel version (MPI), running on     4 processors

     MPI processes distributed on     1 nodes
     R & G space division:  proc/nbgrp/npool/nimage =       4
     Reading input from wd/ecut/file_000088.in
Warning: card &IONS ignored
Warning: card ION_DYNAMICS = 'BFGS', ignored
Warning: card / ignored
Warning: card &CELL ignored
Warning: card CELL_DYNAMICS = 'BFGS', ignored
Warning: card CELL_FACTOR = 2.0, ignored
Warning: card PRESS = 0.0, ignored
Warning: card / ignored

     Current dimensions of program PWSCF are:
     Max number of different atomic species (ntypx) = 10
     Max number of k-points (npk) =  40000
     Max angular momentum in pseudopotentials (lmaxx) =  3
               file Al.pbe-nl-kjpaw_psl.1.0.0.UPF: wavefunction(s)  3S 3P renormalized

     Subspace diagonalization in iterative solution of the eigenvalue problem:
     a serial algorithm will be used


     Parallelization info
     --------------------
     sticks:   dense  smooth     PW     G-vecs:    dense   smooth      PW
     Min         741     556    158                30463    19748    2994
     Max         742     557    159                30468    19751    2997
     Sum        2965    2225    633               121865    78997   11981



     bravais-lattice index     =            0
     lattice parameter (alat)  =      15.2712  a.u.
     unit-cell volume          =    3561.3897 (a.u.)^3
     number of atoms/cell      =           32
     number of atomic types    =            1
     number of electrons       =        96.00
     number of Kohn-Sham states=           58
     kinetic-energy cutoff     =      30.0000  Ry
     charge density cutoff     =     160.0000  Ry
     convergence threshold     =      1.0E-06
     mixing beta               =       0.1000
     number of iterations used =           10  TF        mixing
     Exchange-correlation      = SLA PW PBX PBC ( 1  4  3  4 0 0)

     celldm(1)=  15.271200  celldm(2)=   0.000000  celldm(3)=   0.000000
     celldm(4)=   0.000000  celldm(5)=   0.000000  celldm(6)=   0.000000

     crystal axes: (cart. coord. in units of alat)
               a(1) = (   1.000000   0.000000   0.000000 )  
               a(2) = (   0.000000   1.000000   0.000000 )  
               a(3) = (   0.000000   0.000000   1.000000 )  

     reciprocal axes: (cart. coord. in units 2 pi/alat)
               b(1) = (  1.000000  0.000000  0.000000 )  
               b(2) = (  0.000000  1.000000  0.000000 )  
               b(3) = (  0.000000  0.000000  1.000000 )  


     PseudoPot. # 1 for Al read from file:
     /opt/pp/Al.pbe-nl-kjpaw_psl.1.0.0.UPF
     MD5 check sum: 1b67f78b73fe58c7924490f171ce8a1e
     Pseudo is Projector augmented-wave + core cor, Zval =  3.0
     Generated using "atomic" code by A. Dal Corso v.6.3
     Shape of augmentation charge: PSQ
     Using radial grid of 1135 points,  4 beta functions with: 
                l(1) =   0
                l(2) =   0
                l(3) =   1
                l(4) =   1
     Q(r) pseudized with 0 coefficients 


     atomic species   valence    mass     pseudopotential
        Al             3.00    26.98200     Al( 1.00)

     No symmetry found



   Cartesian axes

     site n.     atom                  positions (alat units)
         1           Al  tau(   1) = (  -0.0000327   0.0000095   0.0000680  )
         2           Al  tau(   2) = (   0.2500796   0.2498100   0.0000703  )
         3           Al  tau(   3) = (   0.2499071   0.0000305   0.2502955  )
         4           Al  tau(   4) = (  -0.0000200   0.2502187   0.2501837  )
         5           Al  tau(   5) = (   0.0002558   0.0002521   0.4998810  )
         6           Al  tau(   6) = (   0.2501194   0.2498326   0.5000036  )
         7           Al  tau(   7) = (   0.2500278   0.0001539   0.7498880  )
         8           Al  tau(   8) = (   0.0000549   0.2501136   0.7502101  )
         9           Al  tau(   9) = (   0.0002375   0.5001078  -0.0000154  )
        10           Al  tau(  10) = (   0.2501396   0.7501762   0.0004054  )
        11           Al  tau(  11) = (   0.2501891   0.5001088   0.2502510  )
        12           Al  tau(  12) = (   0.0000383   0.7500455   0.2500253  )
        13           Al  tau(  13) = (   0.0001102   0.5001562   0.5000990  )
        14           Al  tau(  14) = (   0.2499640   0.7500632   0.4998706  )
        15           Al  tau(  15) = (   0.2503366   0.4997894   0.7496960  )
        16           Al  tau(  16) = (  -0.0003280   0.7497055   0.7499931  )
        17           Al  tau(  17) = (   0.5002037  -0.0001004  -0.0000387  )
        18           Al  tau(  18) = (   0.7499123   0.2500941  -0.0002332  )
        19           Al  tau(  19) = (   0.7496354  -0.0000959   0.2500771  )
        20           Al  tau(  20) = (   0.4999751   0.2499614   0.2498317  )
        21           Al  tau(  21) = (   0.4999211   0.0002929   0.4999726  )
        22           Al  tau(  22) = (   0.7500684   0.2496958   0.4999523  )
        23           Al  tau(  23) = (   0.7500357  -0.0000687   0.7500257  )
        24           Al  tau(  24) = (   0.5000114   0.2498864   0.7499948  )
        25           Al  tau(  25) = (   0.4998526   0.5001156  -0.0002192  )
        26           Al  tau(  26) = (   0.7497723   0.7500978   0.0002736  )
        27           Al  tau(  27) = (   0.7501007   0.4998018   0.2499462  )
        28           Al  tau(  28) = (   0.5000878   0.7497908   0.2502093  )
        29           Al  tau(  29) = (   0.4996761   0.5001027   0.5000404  )
        30           Al  tau(  30) = (   0.7501658   0.7499872   0.4998547  )
        31           Al  tau(  31) = (   0.7499472   0.5000095   0.7501393  )
        32           Al  tau(  32) = (   0.5000142   0.7499486   0.7499177  )

     number of k points=    14  Marzari-Vanderbilt smearing, width (Ry)=  0.0200
                       cart. coord. in units 2pi/alat
        k(    1) = (   0.1666667   0.1666667   0.1666667), wk =   0.1481481
        k(    2) = (   0.1666667   0.1666667  -0.5000000), wk =   0.1481481
        k(    3) = (   0.1666667  -0.5000000  -0.5000000), wk =   0.1481481
        k(    4) = (  -0.5000000  -0.5000000  -0.5000000), wk =   0.0740741
        k(    5) = (  -0.1666667  -0.1666667   0.1666667), wk =   0.1481481
        k(    6) = (  -0.1666667   0.1666667  -0.1666667), wk =   0.1481481
        k(    7) = (   0.1666667  -0.1666667  -0.1666667), wk =   0.1481481
        k(    8) = (  -0.1666667   0.1666667   0.5000000), wk =   0.1481481
        k(    9) = (  -0.5000000  -0.1666667   0.1666667), wk =   0.1481481
        k(   10) = (   0.5000000  -0.1666667  -0.1666667), wk =   0.1481481
        k(   11) = (  -0.1666667  -0.5000000   0.1666667), wk =   0.1481481
        k(   12) = (  -0.1666667   0.5000000  -0.1666667), wk =   0.1481481
        k(   13) = (  -0.5000000   0.1666667   0.5000000), wk =   0.1481481
        k(   14) = (  -0.5000000   0.5000000   0.1666667), wk =   0.1481481

     Dense  grid:   121865 G-vectors     FFT dimensions: (  64,  64,  64)

     Smooth grid:    78997 G-vectors     FFT dimensions: (  54,  54,  54)

     Estimated max dynamical RAM per process >     126.04 MB

     Estimated total dynamical RAM >     504.15 MB

     Initial potential from superposition of free atoms

     starting charge   95.92671, renormalised to   96.00000
     Starting wfcs are  128 randomized atomic wfcs
     Checking if some PAW data can be deallocated... 

     total cpu time spent up to now is       18.4 secs

     Self-consistent Calculation

     iteration #  1     ecut=    30.00 Ry     beta= 0.10
     Davidson diagonalization with overlap
     ethr =  1.00E-02,  avg # of iterations =  3.0

     Threshold (ethr) on eigenvalues was too large:
     Diagonalizing with lowered threshold

     Davidson diagonalization with overlap
     ethr =  1.93E-04,  avg # of iterations =  3.6

     total cpu time spent up to now is       71.9 secs

     total energy              =   -1264.10480741 Ry
     Harris-Foulkes estimate   =   -1264.11097603 Ry
     estimated scf accuracy    <       0.18063584 Ry

     iteration #  2     ecut=    30.00 Ry     beta= 0.10
     Davidson diagonalization with overlap
     ethr =  1.88E-04,  avg # of iterations =  1.0

     total cpu time spent up to now is       89.4 secs

     total energy              =   -1264.05782374 Ry
     Harris-Foulkes estimate   =   -1264.10560001 Ry
     estimated scf accuracy    <       0.15684590 Ry

     iteration #  3     ecut=    30.00 Ry     beta= 0.10
     Davidson diagonalization with overlap
     ethr =  1.63E-04,  avg # of iterations =  1.0

     total cpu time spent up to now is      106.1 secs

     total energy              =   -1264.06073982 Ry
     Harris-Foulkes estimate   =   -1264.06085950 Ry
     estimated scf accuracy    <       0.00061890 Ry

     iteration #  4     ecut=    30.00 Ry     beta= 0.10
     Davidson diagonalization with overlap
     ethr =  6.45E-07,  avg # of iterations =  4.9

     total cpu time spent up to now is      142.5 secs

     total energy              =   -1264.06134747 Ry
     Harris-Foulkes estimate   =   -1264.06151506 Ry
     estimated scf accuracy    <       0.00035302 Ry

     iteration #  5     ecut=    30.00 Ry     beta= 0.10
     Davidson diagonalization with overlap
     ethr =  3.68E-07,  avg # of iterations =  1.0

     total cpu time spent up to now is      159.5 secs

     total energy              =   -1264.06114706 Ry
     Harris-Foulkes estimate   =   -1264.06135726 Ry
     estimated scf accuracy    <       0.00023295 Ry

     iteration #  6     ecut=    30.00 Ry     beta= 0.10
     Davidson diagonalization with overlap
     ethr =  2.43E-07,  avg # of iterations =  2.0

     total cpu time spent up to now is      184.9 secs

     total energy              =   -1264.06121192 Ry
     Harris-Foulkes estimate   =   -1264.06121249 Ry
     estimated scf accuracy    <       0.00001384 Ry

     iteration #  7     ecut=    30.00 Ry     beta= 0.10
     Davidson diagonalization with overlap
     ethr =  1.44E-08,  avg # of iterations =  2.4

     total cpu time spent up to now is      204.2 secs

     total energy              =   -1264.06120358 Ry
     Harris-Foulkes estimate   =   -1264.06121283 Ry
     estimated scf accuracy    <       0.00000561 Ry

     iteration #  8     ecut=    30.00 Ry     beta= 0.10
     Davidson diagonalization with overlap
     ethr =  5.84E-09,  avg # of iterations =  2.3

     total cpu time spent up to now is      226.0 secs

     total energy              =   -1264.06120484 Ry
     Harris-Foulkes estimate   =   -1264.06120428 Ry
     estimated scf accuracy    <       0.00000103 Ry

     iteration #  9     ecut=    30.00 Ry     beta= 0.10
     Davidson diagonalization with overlap
     ethr =  1.08E-09,  avg # of iterations =  2.0

     total cpu time spent up to now is      244.7 secs

     End of self-consistent calculation

          k = 0.1667 0.1667 0.1667 (  9861 PWs)   bands (ev):

    -3.0431  -1.5440  -1.5415  -1.5385  -0.0592  -0.0584  -0.0562  -0.0550
    -0.0537  -0.0501   1.4112   1.4124   1.4146   1.4158   1.4169   1.4176
     1.4198   2.8656   2.8674   2.8687   2.8694   2.8714   2.8739   4.2334
     4.2341   4.2348   4.3307   4.3315   4.3322   5.6423   5.6426   5.6456
     5.6463   5.6477   5.6489   5.7589   7.0600   7.0604   7.0621   7.0638
     7.0647   7.0655   7.0734   7.0760   7.0791   7.4058   7.4066   7.4074
     8.4774   8.4780   8.4796   8.4810   8.4823   8.4828   8.8169   8.8181
     8.8196   8.8215

          k = 0.1667 0.1667-0.5000 (  9914 PWs)   bands (ev):

    -2.5420  -2.5396  -1.0460  -1.0452  -1.0437  -1.0421   0.4328   0.4346
     0.4362   0.4373   0.4389   0.4395   1.8950   1.8962   1.9009   1.9016
     1.9034   1.9042   3.3442   3.3452   3.3456   3.3459   3.3482   3.3501
     4.7056   4.7061   4.7080   4.7088   4.7724   4.7736   4.7737   4.7748
     4.8029   4.8041   6.1394   6.1401   6.1418   6.1435   6.2236   6.2242
     6.2249   6.2259   7.5400   7.5406   7.5423   7.5440   7.6411   7.6424
     7.8550   7.8557   7.8574   7.8584   8.9787   8.9789   8.9801   8.9809
     9.3382   9.3396

          k = 0.1667-0.5000-0.5000 (  9912 PWs)   bands (ev):

    -2.0425  -2.0415  -2.0391  -2.0377  -0.5511  -0.5501  -0.5476  -0.5463
     0.9244   0.9254   0.9278   0.9292   2.3769   2.3783   2.3790   2.3800
     2.3809   2.3830   2.3840   2.3846   3.8167   3.8181   3.8189   3.8199
     3.8206   3.8229   3.8239   3.8246   5.1720   5.1731   5.1757   5.1771
     5.2757   5.2770   5.2777   5.2786   5.2798   5.2817   5.2828   5.2835
     6.6684   6.6689   6.6702   6.6709   8.0998   8.1004   8.1016   8.1024
     8.4106   8.4115   8.4136   8.4148   9.3892   9.3909   9.3918   9.3930
     9.3947   9.3955

          k =-0.5000-0.5000-0.5000 (  9952 PWs)   bands (ev):

    -1.5461  -1.5453  -1.5427  -1.5421  -1.5409  -1.5390  -1.5386  -1.5360
     2.8562   2.8566   2.8579   2.8585   2.8597   2.8607   2.8609   2.8619
     2.8621   2.8628   2.8631   2.8637   2.8640   2.8644   2.8650   2.8652
     2.8661   2.8670   2.8675   2.8678   2.8686   2.8701   2.8716   2.8737
     7.1491   7.1501   7.1508   7.1513   7.1525   7.1531   7.1536   7.1538
     7.1539   7.1547   7.1558   7.1563   7.1571   7.1573   7.1576   7.1582
     7.1586   7.1594   7.1598   7.1600   7.1610   7.1617   7.1634   7.1636
    11.3534  11.3551

          k =-0.1667-0.1667 0.1667 (  9861 PWs)   bands (ev):

    -3.0431  -1.5435  -1.5416  -1.5391  -0.0590  -0.0576  -0.0563  -0.0549
    -0.0525  -0.0522   1.4108   1.4139   1.4144   1.4153   1.4166   1.4176
     1.4199   2.8665   2.8675   2.8682   2.8695   2.8711   2.8737   4.2337
     4.2342   4.2346   4.3310   4.3314   4.3319   5.6413   5.6444   5.6449
     5.6459   5.6476   5.6491   5.7589   7.0601   7.0615   7.0623   7.0633
     7.0642   7.0651   7.0740   7.0760   7.0785   7.4061   7.4066   7.4071
     8.4777   8.4789   8.4799   8.4806   8.4813   8.4827   8.8179   8.8190
     8.8198   8.8211

          k =-0.1667 0.1667-0.1667 (  9861 PWs)   bands (ev):

    -3.0431  -1.5440  -1.5414  -1.5387  -0.0594  -0.0580  -0.0558  -0.0547
    -0.0531  -0.0516   1.4118   1.4124   1.4140   1.4151   1.4171   1.4183
     1.4197   2.8668   2.8672   2.8680   2.8693   2.8715   2.8736   4.2334
     4.2341   4.2349   4.3306   4.3314   4.3323   5.6424   5.6430   5.6443
     5.6455   5.6482   5.6498   5.7589   7.0601   7.0610   7.0617   7.0636
     7.0646   7.0656   7.0735   7.0760   7.0787   7.4058   7.4066   7.4074
     8.4776   8.4784   8.4792   8.4812   8.4819   8.4829   8.8171   8.8183
     8.8197   8.8205

          k = 0.1667-0.1667-0.1667 (  9861 PWs)   bands (ev):

    -3.0431  -1.5436  -1.5420  -1.5385  -0.0594  -0.0577  -0.0562  -0.0556
    -0.0543  -0.0493   1.4119   1.4124   1.4135   1.4155   1.4165   1.4172
     1.4215   2.8658   2.8669   2.8681   2.8700   2.8709   2.8748   4.2333
     4.2342   4.2350   4.3305   4.3314   4.3324   5.6421   5.6432   5.6447
     5.6460   5.6474   5.6499   5.7589   7.0597   7.0612   7.0617   7.0634
     7.0640   7.0658   7.0742   7.0758   7.0792   7.4057   7.4066   7.4075
     8.4770   8.4788   8.4794   8.4812   8.4817   8.4830   8.8174   8.8182
     8.8195   8.8219

          k =-0.1667 0.1667 0.5000 (  9914 PWs)   bands (ev):

    -2.5420  -2.5396  -1.0466  -1.0446  -1.0441  -1.0417   0.4331   0.4340
     0.4358   0.4373   0.4388   0.4402   1.8947   1.8961   1.9008   1.9020
     1.9032   1.9045   3.3438   3.3450   3.3457   3.3469   3.3479   3.3499
     4.7051   4.7065   4.7078   4.7090   4.7720   4.7732   4.7740   4.7752
     4.8030   4.8042   6.1388   6.1409   6.1413   6.1438   6.2232   6.2243
     6.2250   6.2261   7.5398   7.5409   7.5424   7.5438   7.6411   7.6424
     7.8545   7.8562   7.8571   7.8587   8.9783   8.9793   8.9801   8.9809
     9.3386   9.3400

          k =-0.5000-0.1667 0.1667 (  9914 PWs)   bands (ev):

    -2.5421  -2.5395  -1.0472  -1.0444  -1.0436  -1.0418   0.4331   0.4350
     0.4359   0.4373   0.4383   0.4396   1.8949   1.8960   1.9010   1.9015
     1.9033   1.9046   3.3437   3.3449   3.3460   3.3471   3.3476   3.3498
     4.7056   4.7058   4.7078   4.7092   4.7718   4.7731   4.7742   4.7754
     4.8028   4.8042   6.1382   6.1410   6.1419   6.1437   6.2235   6.2242
     6.2245   6.2263   7.5393   7.5410   7.5428   7.5438   7.6410   7.6425
     7.8550   7.8555   7.8571   7.8589   8.9782   8.9793   8.9796   8.9815
     9.3388   9.3412

          k = 0.5000-0.1667-0.1667 (  9914 PWs)   bands (ev):

    -2.5421  -2.5395  -1.0475  -1.0443  -1.0436  -1.0415   0.4319   0.4347
     0.4356   0.4373   0.4382   0.4415   1.8950   1.8958   1.9005   1.9020
     1.9036   1.9044   3.3431   3.3444   3.3460   3.3471   3.3482   3.3504
     4.7051   4.7063   4.7080   4.7090   4.7712   4.7726   4.7747   4.7758
     4.8029   4.8043   6.1378   6.1411   6.1418   6.1441   6.2232   6.2244
     6.2250   6.2260   7.5395   7.5408   7.5419   7.5445   7.6410   7.6425
     7.8545   7.8560   7.8573   7.8587   8.9783   8.9792   8.9802   8.9809
     9.3388   9.3394

          k =-0.1667-0.5000 0.1667 (  9914 PWs)   bands (ev):

    -2.5411  -2.5405  -1.0464  -1.0459  -1.0431  -1.0415   0.4334   0.4341
     0.4360   0.4364   0.4386   0.4407   1.8951   1.8957   1.9021   1.9023
     1.9028   1.9032   3.3435   3.3438   3.3470   3.3474   3.3484   3.3492
     4.7068   4.7068   4.7074   4.7075   4.7717   4.7718   4.7752   4.7757
     4.8034   4.8038   6.1390   6.1395   6.1423   6.1440   6.2243   6.2244
     6.2248   6.2249   7.5401   7.5413   7.5425   7.5430   7.6415   7.6419
     7.8562   7.8563   7.8569   7.8570   8.9793   8.9794   8.9799   8.9800
     9.3390   9.3406

          k =-0.1667 0.5000-0.1667 (  9914 PWs)   bands (ev):

    -2.5411  -2.5405  -1.0467  -1.0461  -1.0425  -1.0416   0.4334   0.4343
     0.4364   0.4372   0.4381   0.4398   1.8951   1.8956   1.9022   1.9025
     1.9026   1.9035   3.3431   3.3435   3.3469   3.3474   3.3490   3.3493
     4.7067   4.7068   4.7069   4.7080   4.7713   4.7716   4.7757   4.7760
     4.8033   4.8037   6.1387   6.1393   6.1429   6.1439   6.2240   6.2244
     6.2245   6.2256   7.5404   7.5409   7.5424   7.5432   7.6415   7.6419
     7.8561   7.8563   7.8564   7.8577   8.9790   8.9792   8.9797   8.9806
     9.3387   9.3400

          k =-0.5000 0.1667 0.5000 (  9912 PWs)   bands (ev):

    -2.0439  -2.0413  -2.0389  -2.0367  -0.5525  -0.5498  -0.5475  -0.5452
     0.9229   0.9256   0.9279   0.9302   2.3765   2.3772   2.3786   2.3810
     2.3819   2.3824   2.3835   2.3855   3.8163   3.8170   3.8185   3.8208
     3.8219   3.8222   3.8234   3.8254   5.1705   5.1733   5.1759   5.1782
     5.2751   5.2760   5.2773   5.2797   5.2806   5.2813   5.2823   5.2844
     6.6677   6.6690   6.6703   6.6714   8.0991   8.1006   8.1017   8.1029
     8.4093   8.4118   8.4136   8.4158   9.3886   9.3897   9.3911   9.3938
     9.3942   9.3961

          k =-0.5000 0.5000 0.1667 (  9912 PWs)   bands (ev):

    -2.0423  -2.0412  -2.0387  -2.0386  -0.5509  -0.5498  -0.5473  -0.5471
     0.9245   0.9257   0.9282   0.9283   2.3770   2.3784   2.3790   2.3805
     2.3811   2.3828   2.3836   2.3842   3.8169   3.8183   3.8188   3.8204
     3.8210   3.8226   3.8236   3.8242   5.1723   5.1734   5.1760   5.1762
     5.2758   5.2771   5.2778   5.2791   5.2800   5.2816   5.2823   5.2830
     6.6685   6.6692   6.6703   6.6705   8.0999   8.1006   8.1019   8.1020
     8.4107   8.4117   8.4140   8.4141   9.3887   9.3908   9.3913   9.3932
     9.3944   9.3960

     the Fermi energy is     7.8168 ev

!    total energy              =   -1264.06120467 Ry
     Harris-Foulkes estimate   =   -1264.06120492 Ry
     estimated scf accuracy    <       0.00000030 Ry

     total all-electron energy =    -15540.630181 Ry

     The total energy is the sum of the following terms:

     one-electron contribution =     101.26792009 Ry
     hartree contribution      =       0.20238515 Ry
     xc contribution           =     -82.91898554 Ry
     ewald contribution        =    -172.93188273 Ry
     one-center paw contrib.   =   -1109.68331605 Ry
     smearing contrib. (-TS)   =       0.00267441 Ry

     convergence has been achieved in   9 iterations

     Forces acting on atoms (cartesian axes, Ry/au):

     atom    1 type  1   force =    -0.00000624    0.00000323    0.00001622
     atom    2 type  1   force =    -0.00009255    0.00022002    0.00008245
     atom    3 type  1   force =     0.00022350   -0.00003197   -0.00051599
     atom    4 type  1   force =    -0.00005572   -0.00015974   -0.00034770
     atom    5 type  1   force =    -0.00043866   -0.00039507    0.00032364
     atom    6 type  1   force =    -0.00014928    0.00043530    0.00000485
     atom    7 type  1   force =    -0.00015012   -0.00055163    0.00032812
     atom    8 type  1   force =     0.00001904   -0.00007495   -0.00025802
     atom    9 type  1   force =     0.00000919   -0.00007652    0.00011579
     atom   10 type  1   force =    -0.00016733   -0.00009300   -0.00068593
     atom   11 type  1   force =    -0.00024442   -0.00025432   -0.00039490
     atom   12 type  1   force =    -0.00008622    0.00002681   -0.00006983
     atom   13 type  1   force =    -0.00019483   -0.00033169   -0.00002538
     atom   14 type  1   force =    -0.00002808    0.00014689    0.00042488
     atom   15 type  1   force =    -0.00050899    0.00032568    0.00051663
     atom   16 type  1   force =     0.00062571    0.00048998    0.00013844
     atom   17 type  1   force =    -0.00044091    0.00002255    0.00009899
     atom   18 type  1   force =     0.00020797   -0.00004140    0.00042364
     atom   19 type  1   force =     0.00052265    0.00023424   -0.00009103
     atom   20 type  1   force =     0.00007228    0.00021452    0.00006338
     atom   21 type  1   force =     0.00019359   -0.00054505    0.00011701
     atom   22 type  1   force =    -0.00014311    0.00059461    0.00013016
     atom   23 type  1   force =     0.00011923   -0.00010565   -0.00022120
     atom   24 type  1   force =     0.00013199    0.00013796   -0.00008926
     atom   25 type  1   force =     0.00010524   -0.00016460    0.00033657
     atom   26 type  1   force =     0.00031101   -0.00023120   -0.00024639
     atom   27 type  1   force =    -0.00015874    0.00001718    0.00011269
     atom   28 type  1   force =    -0.00009041    0.00023952   -0.00006494
     atom   29 type  1   force =     0.00083443   -0.00033598   -0.00009353
     atom   30 type  1   force =    -0.00025868    0.00003726    0.00025311
     atom   31 type  1   force =    -0.00008489   -0.00004448   -0.00034927
     atom   32 type  1   force =    -0.00007664    0.00029148   -0.00003319

     Total force =     0.002735     Total SCF correction =     0.000505
     SCF correction compared to forces is large: reduce conv_thr to get better values


     Computing stress (Cartesian axis) and pressure

          total   stress  (Ry/bohr**3)                   (kbar)     P=   -1.44
  -0.00000978  -0.00000000   0.00000000         -1.44     -0.00      0.00
  -0.00000000  -0.00000978   0.00000000         -0.00     -1.44      0.00
   0.00000000   0.00000000  -0.00000978          0.00      0.00     -1.44


     Writing output data file fe_scf_fcc_2.save/

     init_run     :     17.37s CPU     17.87s WALL (       1 calls)
     electrons    :    223.84s CPU    226.33s WALL (       1 calls)
     forces       :      7.42s CPU      7.61s WALL (       1 calls)
     stress       :      9.09s CPU      9.27s WALL (       1 calls)

     Called by init_run:
     wfcinit      :     16.60s CPU     17.05s WALL (       1 calls)
     potinit      :      0.45s CPU      0.48s WALL (       1 calls)
     hinit0       :      0.16s CPU      0.17s WALL (       1 calls)

     Called by electrons:
     c_bands      :    195.59s CPU    197.66s WALL (      10 calls)
     sum_band     :     23.37s CPU     23.74s WALL (      10 calls)
     v_of_rho     :      0.45s CPU      0.46s WALL (      10 calls)
     newd         :      1.30s CPU      1.34s WALL (      10 calls)
     PAW_pot      :      3.57s CPU      3.60s WALL (      10 calls)
     mix_rho      :      0.07s CPU      0.08s WALL (      10 calls)

     Called by c_bands:
     init_us_2    :      1.20s CPU      1.22s WALL (     322 calls)
     cegterg      :    192.54s CPU    194.59s WALL (     140 calls)

     Called by sum_band:
     sum_band:bec :      0.04s CPU      0.04s WALL (     140 calls)
     addusdens    :      1.26s CPU      1.28s WALL (      10 calls)

     Called by *egterg:
     h_psi        :    115.28s CPU    117.21s WALL (     478 calls)
     s_psi        :     38.03s CPU     38.27s WALL (     478 calls)
     g_psi        :      0.18s CPU      0.18s WALL (     324 calls)
     cdiaghg      :      5.25s CPU      5.27s WALL (     450 calls)

     Called by h_psi:
     h_psi:pot    :    115.06s CPU    116.98s WALL (     478 calls)
     h_psi:calbec :     42.74s CPU     43.08s WALL (     478 calls)
     vloc_psi     :     33.72s CPU     35.02s WALL (     478 calls)
     add_vuspsi   :     38.60s CPU     38.88s WALL (     478 calls)

     General routines
     calbec       :     66.05s CPU     66.66s WALL (     688 calls)
     fft          :      0.27s CPU      0.28s WALL (     154 calls)
     ffts         :      0.03s CPU      0.03s WALL (      20 calls)
     fftw         :     37.17s CPU     38.57s WALL (   53256 calls)
     interpolate  :      0.03s CPU      0.03s WALL (      10 calls)

     Parallel routines
     fft_scatt_xy :      3.78s CPU      3.93s WALL (   53430 calls)
     fft_scatt_yz :      7.16s CPU      7.44s WALL (   53430 calls)

     PWSCF        :   4m18.32s CPU   4m21.88s WALL


   This run was terminated on:   7:57:30   8Apr2020            

=------------------------------------------------------------------------------=
   JOB DONE.
=------------------------------------------------------------------------------=
