
     Program PWSCF v.6.4.1 starts on  8Apr2020 at 12:35:36 

     This program is part of the open-source Quantum ESPRESSO suite
     for quantum simulation of materials; please cite
         "P. Giannozzi et al., J. Phys.:Condens. Matter 21 395502 (2009);
         "P. Giannozzi et al., J. Phys.:Condens. Matter 29 465901 (2017);
          URL http://www.quantum-espresso.org", 
     in publications or presentations arising from this work. More details at
     http://www.quantum-espresso.org/quote

     Parallel version (MPI), running on     4 processors

     MPI processes distributed on     1 nodes
     R & G space division:  proc/nbgrp/npool/nimage =       4
     Reading input from wd/ecut/file_000179.in
Warning: card &IONS ignored
Warning: card ION_DYNAMICS = 'BFGS', ignored
Warning: card / ignored
Warning: card &CELL ignored
Warning: card CELL_DYNAMICS = 'BFGS', ignored
Warning: card CELL_FACTOR = 2.0, ignored
Warning: card PRESS = 0.0, ignored
Warning: card / ignored

     Current dimensions of program PWSCF are:
     Max number of different atomic species (ntypx) = 10
     Max number of k-points (npk) =  40000
     Max angular momentum in pseudopotentials (lmaxx) =  3
               file Al.pbe-nl-kjpaw_psl.1.0.0.UPF: wavefunction(s)  3S 3P renormalized

     Subspace diagonalization in iterative solution of the eigenvalue problem:
     a serial algorithm will be used


     Parallelization info
     --------------------
     sticks:   dense  smooth     PW     G-vecs:    dense   smooth      PW
     Min        1489     835    233                86213    36291    5311
     Max        1490     836    234                86216    36292    5314
     Sum        5957    3341    933               344859   145165   21247



     bravais-lattice index     =            0
     lattice parameter (alat)  =      15.2712  a.u.
     unit-cell volume          =    3561.3897 (a.u.)^3
     number of atoms/cell      =           32
     number of atomic types    =            1
     number of electrons       =        96.00
     number of Kohn-Sham states=           58
     kinetic-energy cutoff     =      45.0000  Ry
     charge density cutoff     =     320.0000  Ry
     convergence threshold     =      1.0E-06
     mixing beta               =       0.1000
     number of iterations used =           10  TF        mixing
     Exchange-correlation      = SLA PW PBX PBC ( 1  4  3  4 0 0)

     celldm(1)=  15.271200  celldm(2)=   0.000000  celldm(3)=   0.000000
     celldm(4)=   0.000000  celldm(5)=   0.000000  celldm(6)=   0.000000

     crystal axes: (cart. coord. in units of alat)
               a(1) = (   1.000000   0.000000   0.000000 )  
               a(2) = (   0.000000   1.000000   0.000000 )  
               a(3) = (   0.000000   0.000000   1.000000 )  

     reciprocal axes: (cart. coord. in units 2 pi/alat)
               b(1) = (  1.000000  0.000000  0.000000 )  
               b(2) = (  0.000000  1.000000  0.000000 )  
               b(3) = (  0.000000  0.000000  1.000000 )  


     PseudoPot. # 1 for Al read from file:
     /opt/pp/Al.pbe-nl-kjpaw_psl.1.0.0.UPF
     MD5 check sum: 1b67f78b73fe58c7924490f171ce8a1e
     Pseudo is Projector augmented-wave + core cor, Zval =  3.0
     Generated using "atomic" code by A. Dal Corso v.6.3
     Shape of augmentation charge: PSQ
     Using radial grid of 1135 points,  4 beta functions with: 
                l(1) =   0
                l(2) =   0
                l(3) =   1
                l(4) =   1
     Q(r) pseudized with 0 coefficients 


     atomic species   valence    mass     pseudopotential
        Al             3.00    26.98200     Al( 1.00)

     No symmetry found



   Cartesian axes

     site n.     atom                  positions (alat units)
         1           Al  tau(   1) = (  -0.0000327   0.0000095   0.0000680  )
         2           Al  tau(   2) = (   0.2500796   0.2498100   0.0000703  )
         3           Al  tau(   3) = (   0.2499071   0.0000305   0.2502955  )
         4           Al  tau(   4) = (  -0.0000200   0.2502187   0.2501837  )
         5           Al  tau(   5) = (   0.0002558   0.0002521   0.4998810  )
         6           Al  tau(   6) = (   0.2501194   0.2498326   0.5000036  )
         7           Al  tau(   7) = (   0.2500278   0.0001539   0.7498880  )
         8           Al  tau(   8) = (   0.0000549   0.2501136   0.7502101  )
         9           Al  tau(   9) = (   0.0002375   0.5001078  -0.0000154  )
        10           Al  tau(  10) = (   0.2501396   0.7501762   0.0004054  )
        11           Al  tau(  11) = (   0.2501891   0.5001088   0.2502510  )
        12           Al  tau(  12) = (   0.0000383   0.7500455   0.2500253  )
        13           Al  tau(  13) = (   0.0001102   0.5001562   0.5000990  )
        14           Al  tau(  14) = (   0.2499640   0.7500632   0.4998706  )
        15           Al  tau(  15) = (   0.2503366   0.4997894   0.7496960  )
        16           Al  tau(  16) = (  -0.0003280   0.7497055   0.7499931  )
        17           Al  tau(  17) = (   0.5002037  -0.0001004  -0.0000387  )
        18           Al  tau(  18) = (   0.7499123   0.2500941  -0.0002332  )
        19           Al  tau(  19) = (   0.7496354  -0.0000959   0.2500771  )
        20           Al  tau(  20) = (   0.4999751   0.2499614   0.2498317  )
        21           Al  tau(  21) = (   0.4999211   0.0002929   0.4999726  )
        22           Al  tau(  22) = (   0.7500684   0.2496958   0.4999523  )
        23           Al  tau(  23) = (   0.7500357  -0.0000687   0.7500257  )
        24           Al  tau(  24) = (   0.5000114   0.2498864   0.7499948  )
        25           Al  tau(  25) = (   0.4998526   0.5001156  -0.0002192  )
        26           Al  tau(  26) = (   0.7497723   0.7500978   0.0002736  )
        27           Al  tau(  27) = (   0.7501007   0.4998018   0.2499462  )
        28           Al  tau(  28) = (   0.5000878   0.7497908   0.2502093  )
        29           Al  tau(  29) = (   0.4996761   0.5001027   0.5000404  )
        30           Al  tau(  30) = (   0.7501658   0.7499872   0.4998547  )
        31           Al  tau(  31) = (   0.7499472   0.5000095   0.7501393  )
        32           Al  tau(  32) = (   0.5000142   0.7499486   0.7499177  )

     number of k points=    14  Marzari-Vanderbilt smearing, width (Ry)=  0.0200
                       cart. coord. in units 2pi/alat
        k(    1) = (   0.1666667   0.1666667   0.1666667), wk =   0.1481481
        k(    2) = (   0.1666667   0.1666667  -0.5000000), wk =   0.1481481
        k(    3) = (   0.1666667  -0.5000000  -0.5000000), wk =   0.1481481
        k(    4) = (  -0.5000000  -0.5000000  -0.5000000), wk =   0.0740741
        k(    5) = (  -0.1666667  -0.1666667   0.1666667), wk =   0.1481481
        k(    6) = (  -0.1666667   0.1666667  -0.1666667), wk =   0.1481481
        k(    7) = (   0.1666667  -0.1666667  -0.1666667), wk =   0.1481481
        k(    8) = (  -0.1666667   0.1666667   0.5000000), wk =   0.1481481
        k(    9) = (  -0.5000000  -0.1666667   0.1666667), wk =   0.1481481
        k(   10) = (   0.5000000  -0.1666667  -0.1666667), wk =   0.1481481
        k(   11) = (  -0.1666667  -0.5000000   0.1666667), wk =   0.1481481
        k(   12) = (  -0.1666667   0.5000000  -0.1666667), wk =   0.1481481
        k(   13) = (  -0.5000000   0.1666667   0.5000000), wk =   0.1481481
        k(   14) = (  -0.5000000   0.5000000   0.1666667), wk =   0.1481481

     Dense  grid:   344859 G-vectors     FFT dimensions: (  90,  90,  90)

     Smooth grid:   145165 G-vectors     FFT dimensions: (  72,  72,  72)

     Estimated max dynamical RAM per process >     313.40 MB

     Estimated total dynamical RAM >       1.22 GB

     Initial potential from superposition of free atoms

     starting charge   95.92671, renormalised to   96.00000
     Starting wfcs are  128 randomized atomic wfcs
     Checking if some PAW data can be deallocated... 

     total cpu time spent up to now is       22.4 secs

     Self-consistent Calculation

     iteration #  1     ecut=    45.00 Ry     beta= 0.10
     Davidson diagonalization with overlap
     ethr =  1.00E-02,  avg # of iterations =  3.0

     Threshold (ethr) on eigenvalues was too large:
     Diagonalizing with lowered threshold

     Davidson diagonalization with overlap
     ethr =  1.93E-04,  avg # of iterations =  3.8

     total cpu time spent up to now is       88.3 secs

     total energy              =   -1264.10941439 Ry
     Harris-Foulkes estimate   =   -1264.11556983 Ry
     estimated scf accuracy    <       0.18057325 Ry

     iteration #  2     ecut=    45.00 Ry     beta= 0.10
     Davidson diagonalization with overlap
     ethr =  1.88E-04,  avg # of iterations =  1.0

     total cpu time spent up to now is      109.9 secs

     total energy              =   -1264.06257663 Ry
     Harris-Foulkes estimate   =   -1264.11023721 Ry
     estimated scf accuracy    <       0.15681273 Ry

     iteration #  3     ecut=    45.00 Ry     beta= 0.10
     Davidson diagonalization with overlap
     ethr =  1.63E-04,  avg # of iterations =  1.0

     total cpu time spent up to now is      131.5 secs

     total energy              =   -1264.06551718 Ry
     Harris-Foulkes estimate   =   -1264.06562121 Ry
     estimated scf accuracy    <       0.00062444 Ry

     iteration #  4     ecut=    45.00 Ry     beta= 0.10
     Davidson diagonalization with overlap
     c_bands:  1 eigenvalues not converged
     ethr =  6.50E-07,  avg # of iterations =  5.1

     total cpu time spent up to now is      179.5 secs

     total energy              =   -1264.06612702 Ry
     Harris-Foulkes estimate   =   -1264.06629669 Ry
     estimated scf accuracy    <       0.00035275 Ry

     iteration #  5     ecut=    45.00 Ry     beta= 0.10
     Davidson diagonalization with overlap
     ethr =  3.67E-07,  avg # of iterations =  1.1

     total cpu time spent up to now is      201.0 secs

     total energy              =   -1264.06592543 Ry
     Harris-Foulkes estimate   =   -1264.06613693 Ry
     estimated scf accuracy    <       0.00023233 Ry

     iteration #  6     ecut=    45.00 Ry     beta= 0.10
     Davidson diagonalization with overlap
     ethr =  2.42E-07,  avg # of iterations =  2.0

     total cpu time spent up to now is      232.0 secs

     total energy              =   -1264.06599121 Ry
     Harris-Foulkes estimate   =   -1264.06599214 Ry
     estimated scf accuracy    <       0.00001414 Ry

     iteration #  7     ecut=    45.00 Ry     beta= 0.10
     Davidson diagonalization with overlap
     ethr =  1.47E-08,  avg # of iterations =  2.4

     total cpu time spent up to now is      255.4 secs

     total energy              =   -1264.06598386 Ry
     Harris-Foulkes estimate   =   -1264.06599218 Ry
     estimated scf accuracy    <       0.00000583 Ry

     iteration #  8     ecut=    45.00 Ry     beta= 0.10
     Davidson diagonalization with overlap
     ethr =  6.07E-09,  avg # of iterations =  2.4

     total cpu time spent up to now is      283.1 secs

     total energy              =   -1264.06598513 Ry
     Harris-Foulkes estimate   =   -1264.06598469 Ry
     estimated scf accuracy    <       0.00000131 Ry

     iteration #  9     ecut=    45.00 Ry     beta= 0.10
     Davidson diagonalization with overlap
     ethr =  1.36E-09,  avg # of iterations =  1.9

     total cpu time spent up to now is      305.5 secs

     End of self-consistent calculation

          k = 0.1667 0.1667 0.1667 ( 18118 PWs)   bands (ev):

    -3.0437  -1.5446  -1.5421  -1.5391  -0.0598  -0.0590  -0.0567  -0.0556
    -0.0542  -0.0506   1.4106   1.4118   1.4140   1.4153   1.4163   1.4170
     1.4192   2.8649   2.8667   2.8680   2.8687   2.8706   2.8731   4.2327
     4.2334   4.2341   4.3296   4.3304   4.3312   5.6412   5.6415   5.6445
     5.6452   5.6466   5.6479   5.7578   7.0586   7.0590   7.0606   7.0623
     7.0633   7.0641   7.0721   7.0746   7.0778   7.4043   7.4050   7.4058
     8.4757   8.4764   8.4780   8.4794   8.4806   8.4812   8.8153   8.8158
     8.8181   8.8188

          k = 0.1667 0.1667-0.5000 ( 18182 PWs)   bands (ev):

    -2.5426  -2.5401  -1.0466  -1.0458  -1.0442  -1.0426   0.4322   0.4340
     0.4357   0.4367   0.4383   0.4390   1.8944   1.8957   1.9003   1.9009
     1.9028   1.9036   3.3434   3.3443   3.3448   3.3451   3.3474   3.3494
     4.7048   4.7053   4.7072   4.7080   4.7714   4.7726   4.7727   4.7739
     4.8019   4.8031   6.1383   6.1390   6.1406   6.1424   6.2224   6.2229
     6.2237   6.2246   7.5385   7.5391   7.5408   7.5425   7.6397   7.6411
     7.8534   7.8541   7.8558   7.8568   8.9771   8.9774   8.9786   8.9793
     9.3369   9.3394

          k = 0.1667-0.5000-0.5000 ( 18124 PWs)   bands (ev):

    -2.0431  -2.0421  -2.0396  -2.0383  -0.5516  -0.5506  -0.5482  -0.5468
     0.9238   0.9248   0.9272   0.9286   2.3762   2.3776   2.3783   2.3793
     2.3802   2.3823   2.3833   2.3840   3.8159   3.8173   3.8180   3.8191
     3.8198   3.8221   3.8230   3.8237   5.1711   5.1722   5.1747   5.1762
     5.2746   5.2759   5.2766   5.2776   5.2787   5.2807   5.2817   5.2824
     6.6670   6.6676   6.6688   6.6696   8.0983   8.0989   8.1001   8.1009
     8.4091   8.4100   8.4121   8.4134   9.3867   9.3882   9.3897   9.3908
     9.3933   9.3945

          k =-0.5000-0.5000-0.5000 ( 18048 PWs)   bands (ev):

    -1.5467  -1.5459  -1.5433  -1.5427  -1.5415  -1.5396  -1.5391  -1.5365
     2.8555   2.8559   2.8571   2.8578   2.8590   2.8600   2.8602   2.8612
     2.8614   2.8621   2.8624   2.8630   2.8633   2.8637   2.8643   2.8645
     2.8654   2.8663   2.8668   2.8671   2.8679   2.8694   2.8709   2.8730
     7.1477   7.1487   7.1494   7.1499   7.1511   7.1517   7.1522   7.1524
     7.1526   7.1533   7.1545   7.1550   7.1557   7.1559   7.1562   7.1568
     7.1573   7.1580   7.1584   7.1586   7.1596   7.1603   7.1620   7.1622
    11.3517  11.3533

          k =-0.1667-0.1667 0.1667 ( 18118 PWs)   bands (ev):

    -3.0437  -1.5440  -1.5421  -1.5396  -0.0595  -0.0582  -0.0569  -0.0554
    -0.0531  -0.0528   1.4102   1.4133   1.4138   1.4147   1.4160   1.4170
     1.4193   2.8658   2.8667   2.8675   2.8688   2.8703   2.8729   4.2330
     4.2334   4.2338   4.3299   4.3304   4.3309   5.6403   5.6433   5.6438
     5.6449   5.6466   5.6481   5.7578   7.0587   7.0601   7.0609   7.0619
     7.0627   7.0637   7.0726   7.0746   7.0772   7.4046   7.4050   7.4055
     8.4761   8.4772   8.4782   8.4790   8.4797   8.4811   8.8156   8.8166
     8.8181   8.8186

          k =-0.1667 0.1667-0.1667 ( 18118 PWs)   bands (ev):

    -3.0437  -1.5445  -1.5419  -1.5393  -0.0600  -0.0586  -0.0563  -0.0552
    -0.0537  -0.0521   1.4112   1.4118   1.4134   1.4145   1.4165   1.4177
     1.4191   2.8661   2.8665   2.8672   2.8686   2.8707   2.8728   4.2327
     4.2334   4.2342   4.3296   4.3304   4.3312   5.6414   5.6420   5.6432
     5.6445   5.6471   5.6488   5.7578   7.0587   7.0596   7.0603   7.0621
     7.0632   7.0642   7.0721   7.0746   7.0774   7.4042   7.4050   7.4059
     8.4759   8.4768   8.4775   8.4796   8.4802   8.4813   8.8150   8.8176
     8.8181   8.8190

          k = 0.1667-0.1667-0.1667 ( 18118 PWs)   bands (ev):

    -3.0437  -1.5442  -1.5426  -1.5390  -0.0600  -0.0582  -0.0568  -0.0562
    -0.0549  -0.0499   1.4113   1.4118   1.4129   1.4149   1.4159   1.4166
     1.4209   2.8651   2.8662   2.8673   2.8692   2.8701   2.8740   4.2326
     4.2334   4.2343   4.3295   4.3304   4.3313   5.6411   5.6422   5.6436
     5.6449   5.6463   5.6488   5.7578   7.0583   7.0598   7.0603   7.0620
     7.0626   7.0644   7.0728   7.0744   7.0778   7.4041   7.4050   7.4060
     8.4754   8.4772   8.4777   8.4796   8.4800   8.4814   8.8156   8.8161
     8.8174   8.8201

          k =-0.1667 0.1667 0.5000 ( 18182 PWs)   bands (ev):

    -2.5426  -2.5401  -1.0472  -1.0451  -1.0446  -1.0422   0.4325   0.4335
     0.4353   0.4368   0.4382   0.4396   1.8942   1.8955   1.9002   1.9014
     1.9026   1.9039   3.3430   3.3442   3.3449   3.3461   3.3471   3.3491
     4.7043   4.7057   4.7070   4.7082   4.7710   4.7722   4.7730   4.7742
     4.8019   4.8031   6.1376   6.1397   6.1402   6.1427   6.2219   6.2231
     6.2238   6.2248   7.5383   7.5394   7.5409   7.5423   7.6397   7.6411
     7.8529   7.8546   7.8555   7.8571   8.9768   8.9777   8.9786   8.9794
     9.3367   9.3376

          k =-0.5000-0.1667 0.1667 ( 18182 PWs)   bands (ev):

    -2.5427  -2.5400  -1.0477  -1.0450  -1.0441  -1.0423   0.4326   0.4345
     0.4353   0.4367   0.4377   0.4391   1.8943   1.8954   1.9004   1.9009
     1.9027   1.9040   3.3429   3.3441   3.3452   3.3463   3.3468   3.3491
     4.7048   4.7050   4.7070   4.7084   4.7708   4.7721   4.7732   4.7745
     4.8017   4.8031   6.1370   6.1399   6.1408   6.1426   6.2223   6.2230
     6.2233   6.2251   7.5379   7.5395   7.5413   7.5423   7.6397   7.6411
     7.8534   7.8539   7.8555   7.8573   8.9766   8.9778   8.9781   8.9800
     9.3361   9.3387

          k = 0.5000-0.1667-0.1667 ( 18182 PWs)   bands (ev):

    -2.5427  -2.5400  -1.0481  -1.0449  -1.0442  -1.0420   0.4313   0.4341
     0.4351   0.4367   0.4377   0.4410   1.8944   1.8953   1.8999   1.9013
     1.9030   1.9038   3.3423   3.3436   3.3452   3.3463   3.3474   3.3496
     4.7043   4.7055   4.7072   4.7082   4.7702   4.7716   4.7738   4.7749
     4.8018   4.8033   6.1367   6.1400   6.1407   6.1429   6.2219   6.2232
     6.2237   6.2248   7.5381   7.5394   7.5405   7.5430   7.6397   7.6411
     7.8529   7.8544   7.8557   7.8571   8.9767   8.9777   8.9787   8.9794
     9.3365   9.3387

          k =-0.1667-0.5000 0.1667 ( 18182 PWs)   bands (ev):

    -2.5416  -2.5411  -1.0470  -1.0464  -1.0437  -1.0421   0.4328   0.4335
     0.4355   0.4358   0.4381   0.4402   1.8946   1.8952   1.9015   1.9016
     1.9022   1.9026   3.3427   3.3430   3.3461   3.3466   3.3476   3.3484
     4.7060   4.7060   4.7066   4.7067   4.7707   4.7709   4.7742   4.7747
     4.8023   4.8027   6.1378   6.1384   6.1412   6.1429   6.2231   6.2232
     6.2236   6.2237   7.5386   7.5398   7.5410   7.5415   7.6402   7.6406
     7.8547   7.8548   7.8553   7.8554   8.9778   8.9779   8.9784   8.9784
     9.3370   9.3387

          k =-0.1667 0.5000-0.1667 ( 18182 PWs)   bands (ev):

    -2.5416  -2.5411  -1.0473  -1.0467  -1.0431  -1.0421   0.4328   0.4337
     0.4359   0.4367   0.4376   0.4393   1.8945   1.8950   1.9015   1.9018
     1.9020   1.9028   3.3423   3.3427   3.3461   3.3466   3.3482   3.3485
     4.7059   4.7060   4.7061   4.7072   4.7703   4.7706   4.7747   4.7751
     4.8022   4.8026   6.1376   6.1382   6.1418   6.1428   6.2228   6.2232
     6.2233   6.2244   7.5389   7.5394   7.5409   7.5418   7.6402   7.6406
     7.8545   7.8547   7.8548   7.8561   8.9775   8.9777   8.9782   8.9791
     9.3370   9.3377

          k =-0.5000 0.1667 0.5000 ( 18124 PWs)   bands (ev):

    -2.0445  -2.0418  -2.0395  -2.0372  -0.5531  -0.5504  -0.5481  -0.5458
     0.9224   0.9251   0.9274   0.9297   2.3758   2.3765   2.3780   2.3803
     2.3813   2.3817   2.3829   2.3849   3.8155   3.8161   3.8177   3.8200
     3.8211   3.8213   3.8226   3.8246   5.1696   5.1724   5.1749   5.1773
     5.2741   5.2749   5.2762   5.2786   5.2796   5.2802   5.2813   5.2833
     6.6664   6.6677   6.6690   6.6700   8.0976   8.0991   8.1002   8.1014
     8.4078   8.4103   8.4122   8.4143   9.3866   9.3871   9.3888   9.3914
     9.3928   9.3941

          k =-0.5000 0.5000 0.1667 ( 18124 PWs)   bands (ev):

    -2.0429  -2.0418  -2.0393  -2.0391  -0.5514  -0.5503  -0.5478  -0.5477
     0.9240   0.9251   0.9276   0.9278   2.3764   2.3777   2.3783   2.3798
     2.3805   2.3821   2.3830   2.3836   3.8160   3.8175   3.8179   3.8195
     3.8202   3.8218   3.8228   3.8233   5.1713   5.1725   5.1751   5.1753
     5.2748   5.2760   5.2767   5.2781   5.2789   5.2806   5.2812   5.2820
     6.6672   6.6678   6.6690   6.6691   8.0984   8.0990   8.1003   8.1005
     8.4092   8.4102   8.4125   8.4127   9.3869   9.3884   9.3900   9.3914
     9.3918   9.3943

     the Fermi energy is     7.8153 ev

!    total energy              =   -1264.06598486 Ry
     Harris-Foulkes estimate   =   -1264.06598521 Ry
     estimated scf accuracy    <       0.00000027 Ry

     total all-electron energy =    -15540.634962 Ry

     The total energy is the sum of the following terms:

     one-electron contribution =     101.25862312 Ry
     hartree contribution      =       0.20235238 Ry
     xc contribution           =     -82.91808950 Ry
     ewald contribution        =    -172.93188273 Ry
     one-center paw contrib.   =   -1109.67965388 Ry
     smearing contrib. (-TS)   =       0.00266574 Ry

     convergence has been achieved in   9 iterations

     Forces acting on atoms (cartesian axes, Ry/au):

     atom    1 type  1   force =    -0.00000656    0.00000484    0.00001826
     atom    2 type  1   force =    -0.00009091    0.00022067    0.00008296
     atom    3 type  1   force =     0.00022536   -0.00003338   -0.00051719
     atom    4 type  1   force =    -0.00005867   -0.00016006   -0.00035128
     atom    5 type  1   force =    -0.00044004   -0.00039747    0.00032334
     atom    6 type  1   force =    -0.00015037    0.00043617    0.00000525
     atom    7 type  1   force =    -0.00014940   -0.00055488    0.00032792
     atom    8 type  1   force =     0.00001774   -0.00007500   -0.00025910
     atom    9 type  1   force =     0.00001013   -0.00007786    0.00011551
     atom   10 type  1   force =    -0.00016387   -0.00009326   -0.00069159
     atom   11 type  1   force =    -0.00024532   -0.00025495   -0.00039707
     atom   12 type  1   force =    -0.00008663    0.00002611   -0.00006874
     atom   13 type  1   force =    -0.00019791   -0.00033009   -0.00002491
     atom   14 type  1   force =    -0.00002974    0.00014684    0.00042578
     atom   15 type  1   force =    -0.00051016    0.00032718    0.00052135
     atom   16 type  1   force =     0.00062843    0.00048765    0.00014007
     atom   17 type  1   force =    -0.00044504    0.00002047    0.00010110
     atom   18 type  1   force =     0.00020858   -0.00003941    0.00042467
     atom   19 type  1   force =     0.00052538    0.00023581   -0.00009089
     atom   20 type  1   force =     0.00007184    0.00021504    0.00006313
     atom   21 type  1   force =     0.00019324   -0.00054612    0.00011567
     atom   22 type  1   force =    -0.00014578    0.00059631    0.00012760
     atom   23 type  1   force =     0.00011788   -0.00010766   -0.00022369
     atom   24 type  1   force =     0.00013166    0.00013845   -0.00008846
     atom   25 type  1   force =     0.00010750   -0.00016261    0.00033957
     atom   26 type  1   force =     0.00031198   -0.00023364   -0.00024529
     atom   27 type  1   force =    -0.00015830    0.00001725    0.00011226
     atom   28 type  1   force =    -0.00008971    0.00024030   -0.00006586
     atom   29 type  1   force =     0.00083828   -0.00033419   -0.00009279
     atom   30 type  1   force =    -0.00025921    0.00003595    0.00025322
     atom   31 type  1   force =    -0.00008525   -0.00004137   -0.00034756
     atom   32 type  1   force =    -0.00007513    0.00029289   -0.00003326

     Total force =     0.002744     Total SCF correction =     0.000477
     SCF correction compared to forces is large: reduce conv_thr to get better values


     Computing stress (Cartesian axis) and pressure

          total   stress  (Ry/bohr**3)                   (kbar)     P=   -0.94
  -0.00000642  -0.00000000  -0.00000000         -0.94     -0.00     -0.00
  -0.00000000  -0.00000642   0.00000000         -0.00     -0.94      0.00
  -0.00000000   0.00000000  -0.00000642         -0.00      0.00     -0.95


     Writing output data file fe_scf_fcc_2.save/

     init_run     :     21.79s CPU     22.11s WALL (       1 calls)
     electrons    :    280.14s CPU    283.09s WALL (       1 calls)
     forces       :     10.02s CPU     10.09s WALL (       1 calls)
     stress       :     12.73s CPU     12.79s WALL (       1 calls)

     Called by init_run:
     wfcinit      :     20.90s CPU     21.16s WALL (       1 calls)
     potinit      :      0.37s CPU      0.39s WALL (       1 calls)
     hinit0       :      0.20s CPU      0.20s WALL (       1 calls)

     Called by electrons:
     c_bands      :    244.26s CPU    246.27s WALL (      10 calls)
     sum_band     :     30.11s CPU     30.74s WALL (      10 calls)
     v_of_rho     :      1.09s CPU      1.14s WALL (      10 calls)
     newd         :      2.63s CPU      2.92s WALL (      10 calls)
     PAW_pot      :      2.40s CPU      2.40s WALL (      10 calls)
     mix_rho      :      0.16s CPU      0.16s WALL (      10 calls)

     Called by c_bands:
     init_us_2    :      1.73s CPU      1.76s WALL (     322 calls)
     cegterg      :    241.09s CPU    243.04s WALL (     140 calls)

     Called by sum_band:
     sum_band:bec :      0.03s CPU      0.03s WALL (     140 calls)
     addusdens    :      2.55s CPU      2.87s WALL (      10 calls)

     Called by *egterg:
     h_psi        :    147.85s CPU    149.64s WALL (     485 calls)
     s_psi        :     57.44s CPU     57.57s WALL (     485 calls)
     g_psi        :      0.20s CPU      0.20s WALL (     331 calls)
     cdiaghg      :      3.79s CPU      3.80s WALL (     457 calls)

     Called by h_psi:
     h_psi:pot    :    147.56s CPU    149.22s WALL (     485 calls)
     h_psi:calbec :     59.18s CPU     59.27s WALL (     485 calls)
     vloc_psi     :     29.73s CPU     31.30s WALL (     485 calls)
     add_vuspsi   :     58.64s CPU     58.65s WALL (     485 calls)

     General routines
     calbec       :     90.71s CPU     90.82s WALL (     695 calls)
     fft          :      0.64s CPU      0.69s WALL (     154 calls)
     ffts         :      0.02s CPU      0.03s WALL (      20 calls)
     fftw         :     32.17s CPU     33.86s WALL (   53496 calls)
     interpolate  :      0.06s CPU      0.06s WALL (      10 calls)

     Parallel routines
     fft_scatt_xy :      4.06s CPU      4.28s WALL (   53670 calls)
     fft_scatt_yz :      8.98s CPU      9.48s WALL (   53670 calls)

     PWSCF        :   5m25.09s CPU   5m28.66s WALL


   This run was terminated on:  12:41: 4   8Apr2020            

=------------------------------------------------------------------------------=
   JOB DONE.
=------------------------------------------------------------------------------=
