
     Program PWSCF v.6.3 starts on  9Mar2020 at  6:43: 7 

     This program is part of the open-source Quantum ESPRESSO suite
     for quantum simulation of materials; please cite
         "P. Giannozzi et al., J. Phys.:Condens. Matter 21 395502 (2009);
         "P. Giannozzi et al., J. Phys.:Condens. Matter 29 465901 (2017);
          URL http://www.quantum-espresso.org", 
     in publications or presentations arising from this work. More details at
     http://www.quantum-espresso.org/quote

     Parallel version (MPI & OpenMP), running on      20 processor cores
     Number of MPI processes:                20
     Threads/MPI process:                     1

     MPI processes distributed on     1 nodes
     R & G space division:  proc/nbgrp/npool/nimage =      20
     Reading input from wd/ecut/file_000001.in
Warning: card &IONS ignored
Warning: card ION_DYNAMICS = 'BFGS', ignored
Warning: card / ignored
Warning: card &CELL ignored
Warning: card CELL_DYNAMICS = 'BFGS', ignored
Warning: card CELL_FACTOR = 2.0, ignored
Warning: card PRESS = 0.0, ignored
Warning: card / ignored

     Current dimensions of program PWSCF are:
     Max number of different atomic species (ntypx) = 10
     Max number of k-points (npk) =  40000
     Max angular momentum in pseudopotentials (lmaxx) =  3
     Message from routine read_upf::
     Pseudo file /rds/homes/b/bxp912/pp/Al.pbe-nl-kjpaw_psl.1.0.0.UPF has been successfully fixed on the fly.
To avoid this message in the future you can permanently fix 
 your pseudo files following instructions given in: 
https://gitlab.com/QEF/q-e/blob/master/upftools/how_to_fix_upf.md
               file Al.pbe-nl-kjpaw_psl.1.0.0.UPF: wavefunction(s)  3S 3P renormalized

     Subspace diagonalization in iterative solution of the eigenvalue problem:
     a serial algorithm will be used

 
     Parallelization info
     --------------------
     sticks:   dense  smooth     PW     G-vecs:    dense   smooth      PW
     Min          93      93     26                 3011     3011     458
     Max          94      94     30                 3016     3016     460
     Sum        1861    1861    529                60245    60245    9171
 


     bravais-lattice index     =            0
     lattice parameter (alat)  =      15.2712  a.u.
     unit-cell volume          =    3561.3897 (a.u.)^3
     number of atoms/cell      =           32
     number of atomic types    =            1
     number of electrons       =        96.00
     number of Kohn-Sham states=           58
     kinetic-energy cutoff     =      25.0000  Ry
     charge density cutoff     =     100.0000  Ry
     convergence threshold     =      1.0E-06
     mixing beta               =       0.1000
     number of iterations used =           10  TF        mixing
     Exchange-correlation      = SLA PW PBX PBC ( 1  4  3  4 0 0)

     celldm(1)=  15.271200  celldm(2)=   0.000000  celldm(3)=   0.000000
     celldm(4)=   0.000000  celldm(5)=   0.000000  celldm(6)=   0.000000

     crystal axes: (cart. coord. in units of alat)
               a(1) = (   1.000000   0.000000   0.000000 )  
               a(2) = (   0.000000   1.000000   0.000000 )  
               a(3) = (   0.000000   0.000000   1.000000 )  

     reciprocal axes: (cart. coord. in units 2 pi/alat)
               b(1) = (  1.000000  0.000000  0.000000 )  
               b(2) = (  0.000000  1.000000  0.000000 )  
               b(3) = (  0.000000  0.000000  1.000000 )  


     PseudoPot. # 1 for Al read from file:
     /rds/homes/b/bxp912/pp/Al.pbe-nl-kjpaw_psl.1.0.0.UPF
     MD5 check sum: 339dbea23cf3ab9a065ad45c0f9085d7
     Pseudo is Projector augmented-wave + core cor, Zval =  3.0
     Generated using "atomic" code by A. Dal Corso v.5.1
     Shape of augmentation charge: PSQ
     Using radial grid of 1135 points,  4 beta functions with: 
                l(1) =   0
                l(2) =   0
                l(3) =   1
                l(4) =   1
     Q(r) pseudized with 0 coefficients 


     atomic species   valence    mass     pseudopotential
        Al             3.00    26.98200     Al( 1.00)

     No symmetry found



   Cartesian axes

     site n.     atom                  positions (alat units)
         1           Al  tau(   1) = (  -0.0000327   0.0000095   0.0000680  )
         2           Al  tau(   2) = (   0.2500796   0.2498100   0.0000703  )
         3           Al  tau(   3) = (   0.2499071   0.0000305   0.2502955  )
         4           Al  tau(   4) = (  -0.0000200   0.2502187   0.2501837  )
         5           Al  tau(   5) = (   0.0002558   0.0002521   0.4998810  )
         6           Al  tau(   6) = (   0.2501194   0.2498326   0.5000036  )
         7           Al  tau(   7) = (   0.2500278   0.0001539   0.7498880  )
         8           Al  tau(   8) = (   0.0000549   0.2501136   0.7502101  )
         9           Al  tau(   9) = (   0.0002375   0.5001078  -0.0000154  )
        10           Al  tau(  10) = (   0.2501396   0.7501762   0.0004054  )
        11           Al  tau(  11) = (   0.2501891   0.5001088   0.2502510  )
        12           Al  tau(  12) = (   0.0000383   0.7500455   0.2500253  )
        13           Al  tau(  13) = (   0.0001102   0.5001562   0.5000990  )
        14           Al  tau(  14) = (   0.2499640   0.7500632   0.4998706  )
        15           Al  tau(  15) = (   0.2503366   0.4997894   0.7496960  )
        16           Al  tau(  16) = (  -0.0003280   0.7497055   0.7499931  )
        17           Al  tau(  17) = (   0.5002037  -0.0001004  -0.0000387  )
        18           Al  tau(  18) = (   0.7499123   0.2500941  -0.0002332  )
        19           Al  tau(  19) = (   0.7496354  -0.0000959   0.2500771  )
        20           Al  tau(  20) = (   0.4999751   0.2499614   0.2498317  )
        21           Al  tau(  21) = (   0.4999211   0.0002929   0.4999726  )
        22           Al  tau(  22) = (   0.7500684   0.2496958   0.4999523  )
        23           Al  tau(  23) = (   0.7500357  -0.0000687   0.7500257  )
        24           Al  tau(  24) = (   0.5000114   0.2498864   0.7499948  )
        25           Al  tau(  25) = (   0.4998526   0.5001156  -0.0002192  )
        26           Al  tau(  26) = (   0.7497723   0.7500978   0.0002736  )
        27           Al  tau(  27) = (   0.7501007   0.4998018   0.2499462  )
        28           Al  tau(  28) = (   0.5000878   0.7497908   0.2502093  )
        29           Al  tau(  29) = (   0.4996761   0.5001027   0.5000404  )
        30           Al  tau(  30) = (   0.7501658   0.7499872   0.4998547  )
        31           Al  tau(  31) = (   0.7499472   0.5000095   0.7501393  )
        32           Al  tau(  32) = (   0.5000142   0.7499486   0.7499177  )

     number of k points=    14  Marzari-Vanderbilt smearing, width (Ry)=  0.0200
                       cart. coord. in units 2pi/alat
        k(    1) = (   0.1666667   0.1666667   0.1666667), wk =   0.1481481
        k(    2) = (   0.1666667   0.1666667  -0.5000000), wk =   0.1481481
        k(    3) = (   0.1666667  -0.5000000  -0.5000000), wk =   0.1481481
        k(    4) = (  -0.5000000  -0.5000000  -0.5000000), wk =   0.0740741
        k(    5) = (  -0.1666667  -0.1666667   0.1666667), wk =   0.1481481
        k(    6) = (  -0.1666667   0.1666667  -0.1666667), wk =   0.1481481
        k(    7) = (   0.1666667  -0.1666667  -0.1666667), wk =   0.1481481
        k(    8) = (  -0.1666667   0.1666667   0.5000000), wk =   0.1481481
        k(    9) = (  -0.5000000  -0.1666667   0.1666667), wk =   0.1481481
        k(   10) = (   0.5000000  -0.1666667  -0.1666667), wk =   0.1481481
        k(   11) = (  -0.1666667  -0.5000000   0.1666667), wk =   0.1481481
        k(   12) = (  -0.1666667   0.5000000  -0.1666667), wk =   0.1481481
        k(   13) = (  -0.5000000   0.1666667   0.5000000), wk =   0.1481481
        k(   14) = (  -0.5000000   0.5000000   0.1666667), wk =   0.1481481

     Dense  grid:    60245 G-vectors     FFT dimensions: (  50,  50,  50)

     Estimated max dynamical RAM per process >      15.62 MB

     Estimated total dynamical RAM >     312.50 MB

     Initial potential from superposition of free atoms

     starting charge   95.92671, renormalised to   96.00000
     Starting wfcs are  128 randomized atomic wfcs
     Checking if some PAW data can be deallocated... 

     total cpu time spent up to now is        2.2 secs

     Self-consistent Calculation

     iteration #  1     ecut=    25.00 Ry     beta= 0.10
     Davidson diagonalization with overlap
     ethr =  1.00E-02,  avg # of iterations =  3.0

     Threshold (ethr) on eigenvalues was too large:
     Diagonalizing with lowered threshold

     Davidson diagonalization with overlap
     ethr =  1.93E-04,  avg # of iterations =  3.6

     total cpu time spent up to now is        5.9 secs

     total energy              =   -1264.09833000 Ry
     Harris-Foulkes estimate   =   -1264.10449894 Ry
     estimated scf accuracy    <       0.18077814 Ry

     iteration #  2     ecut=    25.00 Ry     beta= 0.10
     Davidson diagonalization with overlap
     ethr =  1.88E-04,  avg # of iterations =  1.0

     total cpu time spent up to now is        7.2 secs

     total energy              =   -1264.05139310 Ry
     Harris-Foulkes estimate   =   -1264.09916076 Ry
     estimated scf accuracy    <       0.15688646 Ry

     iteration #  3     ecut=    25.00 Ry     beta= 0.10
     Davidson diagonalization with overlap
     ethr =  1.63E-04,  avg # of iterations =  1.0

     total cpu time spent up to now is        8.3 secs

     total energy              =   -1264.05424342 Ry
     Harris-Foulkes estimate   =   -1264.05438867 Ry
     estimated scf accuracy    <       0.00060678 Ry

     iteration #  4     ecut=    25.00 Ry     beta= 0.10
     Davidson diagonalization with overlap
     ethr =  6.32E-07,  avg # of iterations =  4.9

     total cpu time spent up to now is       10.8 secs

     total energy              =   -1264.05488244 Ry
     Harris-Foulkes estimate   =   -1264.05503987 Ry
     estimated scf accuracy    <       0.00035884 Ry

     iteration #  5     ecut=    25.00 Ry     beta= 0.10
     Davidson diagonalization with overlap
     ethr =  3.74E-07,  avg # of iterations =  2.0

     total cpu time spent up to now is       12.0 secs

     total energy              =   -1264.05469766 Ry
     Harris-Foulkes estimate   =   -1264.05489293 Ry
     estimated scf accuracy    <       0.00022964 Ry

     iteration #  6     ecut=    25.00 Ry     beta= 0.10
     Davidson diagonalization with overlap
     ethr =  2.39E-07,  avg # of iterations =  2.0

     total cpu time spent up to now is       13.6 secs

     total energy              =   -1264.05476044 Ry
     Harris-Foulkes estimate   =   -1264.05475995 Ry
     estimated scf accuracy    <       0.00001312 Ry

     iteration #  7     ecut=    25.00 Ry     beta= 0.10
     Davidson diagonalization with overlap
     ethr =  1.37E-08,  avg # of iterations =  2.1

     total cpu time spent up to now is       14.9 secs

     total energy              =   -1264.05475098 Ry
     Harris-Foulkes estimate   =   -1264.05476128 Ry
     estimated scf accuracy    <       0.00000565 Ry

     iteration #  8     ecut=    25.00 Ry     beta= 0.10
     Davidson diagonalization with overlap
     ethr =  5.88E-09,  avg # of iterations =  2.4

     total cpu time spent up to now is       16.4 secs

     End of self-consistent calculation

          k = 0.1667 0.1667 0.1667 (  7499 PWs)   bands (ev):

    -3.0431  -1.5437  -1.5413  -1.5383  -0.0588  -0.0580  -0.0558  -0.0546
    -0.0533  -0.0497   1.4118   1.4130   1.4151   1.4163   1.4174   1.4181
     1.4203   2.8662   2.8679   2.8693   2.8700   2.8718   2.8744   4.2344
     4.2351   4.2358   4.3316   4.3324   4.3332   5.6434   5.6437   5.6467
     5.6474   5.6488   5.6500   5.7601   7.0618   7.0621   7.0638   7.0655
     7.0664   7.0672   7.0753   7.0778   7.0809   7.4089   7.4097   7.4105
     8.4798   8.4804   8.4820   8.4834   8.4847   8.4852   8.8204   8.8221
     8.8224   8.8245

          k = 0.1667 0.1667-0.5000 (  7532 PWs)   bands (ev):

    -2.5418  -2.5394  -1.0457  -1.0449  -1.0433  -1.0417   0.4332   0.4350
     0.4367   0.4377   0.4393   0.4400   1.8955   1.8968   1.9014   1.9021
     1.9039   1.9047   3.3447   3.3457   3.3461   3.3464   3.3487   3.3507
     4.7065   4.7070   4.7089   4.7097   4.7731   4.7743   4.7744   4.7755
     4.8041   4.8053   6.1408   6.1416   6.1432   6.1449   6.2251   6.2256
     6.2264   6.2273   7.5419   7.5425   7.5442   7.5459   7.6430   7.6443
     7.8581   7.8588   7.8604   7.8615   8.9814   8.9817   8.9829   8.9836
     9.3416   9.3430

          k = 0.1667-0.5000-0.5000 (  7512 PWs)   bands (ev):

    -2.0423  -2.0413  -2.0388  -2.0375  -0.5507  -0.5497  -0.5473  -0.5459
     0.9249   0.9258   0.9283   0.9296   2.3774   2.3788   2.3795   2.3805
     2.3813   2.3835   2.3844   2.3851   3.8173   3.8187   3.8194   3.8205
     3.8212   3.8234   3.8244   3.8251   5.1732   5.1742   5.1768   5.1783
     5.2770   5.2783   5.2790   5.2799   5.2810   5.2830   5.2841   5.2847
     6.6704   6.6710   6.6722   6.6730   8.1021   8.1027   8.1039   8.1047
     8.4136   8.4145   8.4166   8.4178   9.3918   9.3937   9.3952   9.3957
     9.3980   9.4003

          k =-0.5000-0.5000-0.5000 (  7568 PWs)   bands (ev):

    -1.5458  -1.5450  -1.5424  -1.5418  -1.5407  -1.5388  -1.5384  -1.5357
     2.8568   2.8572   2.8584   2.8590   2.8602   2.8612   2.8614   2.8624
     2.8626   2.8633   2.8636   2.8642   2.8645   2.8649   2.8655   2.8657
     2.8666   2.8675   2.8680   2.8683   2.8691   2.8706   2.8721   2.8741
     7.1509   7.1519   7.1526   7.1531   7.1543   7.1549   7.1554   7.1556
     7.1557   7.1565   7.1576   7.1581   7.1588   7.1590   7.1593   7.1600
     7.1604   7.1611   7.1615   7.1617   7.1627   7.1634   7.1651   7.1653
    11.3587  11.3598

          k =-0.1667-0.1667 0.1667 (  7499 PWs)   bands (ev):

    -3.0431  -1.5432  -1.5413  -1.5388  -0.0586  -0.0572  -0.0559  -0.0545
    -0.0521  -0.0519   1.4113   1.4144   1.4149   1.4158   1.4171   1.4181
     1.4204   2.8670   2.8680   2.8687   2.8701   2.8716   2.8742   4.2347
     4.2351   4.2355   4.3319   4.3324   4.3328   5.6425   5.6455   5.6460
     5.6470   5.6488   5.6502   5.7601   7.0618   7.0633   7.0641   7.0650
     7.0659   7.0668   7.0758   7.0778   7.0803   7.4093   7.4097   7.4102
     8.4801   8.4813   8.4823   8.4830   8.4837   8.4851   8.8205   8.8212
     8.8230   8.8243

          k =-0.1667 0.1667-0.1667 (  7499 PWs)   bands (ev):

    -3.0431  -1.5437  -1.5411  -1.5385  -0.0590  -0.0576  -0.0554  -0.0543
    -0.0528  -0.0512   1.4123   1.4129   1.4145   1.4156   1.4176   1.4188
     1.4201   2.8674   2.8678   2.8685   2.8699   2.8720   2.8740   4.2344
     4.2351   4.2359   4.3315   4.3324   4.3332   5.6436   5.6442   5.6454
     5.6467   5.6493   5.6509   5.7601   7.0619   7.0628   7.0635   7.0653
     7.0664   7.0673   7.0754   7.0779   7.0806   7.4089   7.4097   7.4105
     8.4800   8.4808   8.4816   8.4836   8.4843   8.4852   8.8200   8.8216
     8.8228   8.8242

          k = 0.1667-0.1667-0.1667 (  7499 PWs)   bands (ev):

    -3.0431  -1.5433  -1.5417  -1.5382  -0.0590  -0.0572  -0.0558  -0.0552
    -0.0539  -0.0490   1.4124   1.4129   1.4140   1.4160   1.4170   1.4177
     1.4220   2.8664   2.8674   2.8686   2.8705   2.8714   2.8753   4.2343
     4.2351   4.2360   4.3314   4.3324   4.3333   5.6433   5.6444   5.6458
     5.6471   5.6485   5.6510   5.7601   7.0614   7.0629   7.0635   7.0652
     7.0657   7.0675   7.0760   7.0776   7.0810   7.4088   7.4097   7.4106
     8.4794   8.4812   8.4818   8.4836   8.4841   8.4854   8.8205   8.8214
     8.8233   8.8253

          k =-0.1667 0.1667 0.5000 (  7532 PWs)   bands (ev):

    -2.5418  -2.5394  -1.0462  -1.0442  -1.0438  -1.0414   0.4335   0.4345
     0.4363   0.4378   0.4393   0.4406   1.8953   1.8966   1.9013   1.9025
     1.9037   1.9050   3.3444   3.3455   3.3462   3.3474   3.3484   3.3504
     4.7061   4.7074   4.7087   4.7099   4.7727   4.7739   4.7747   4.7759
     4.8041   4.8054   6.1402   6.1423   6.1428   6.1452   6.2246   6.2258
     6.2264   6.2275   7.5417   7.5428   7.5443   7.5457   7.6430   7.6443
     7.8576   7.8593   7.8602   7.8618   8.9811   8.9820   8.9828   8.9836
     9.3425   9.3433

          k =-0.5000-0.1667 0.1667 (  7532 PWs)   bands (ev):

    -2.5419  -2.5393  -1.0468  -1.0441  -1.0432  -1.0415   0.4336   0.4355
     0.4363   0.4377   0.4387   0.4401   1.8954   1.8965   1.9016   1.9020
     1.9038   1.9051   3.3442   3.3454   3.3465   3.3476   3.3481   3.3504
     4.7065   4.7068   4.7087   4.7101   4.7725   4.7738   4.7749   4.7761
     4.8039   4.8053   6.1396   6.1424   6.1433   6.1451   6.2250   6.2257
     6.2260   6.2277   7.5413   7.5429   7.5446   7.5456   7.6429   7.6444
     7.8581   7.8586   7.8601   7.8619   8.9809   8.9821   8.9824   8.9842
     9.3421   9.3440

          k = 0.5000-0.1667-0.1667 (  7532 PWs)   bands (ev):

    -2.5419  -2.5393  -1.0472  -1.0440  -1.0433  -1.0412   0.4324   0.4351
     0.4361   0.4377   0.4387   0.4420   1.8955   1.8964   1.9010   1.9025
     1.9041   1.9049   3.3436   3.3449   3.3466   3.3476   3.3487   3.3509
     4.7061   4.7072   4.7089   4.7099   4.7719   4.7733   4.7755   4.7766
     4.8041   4.8055   6.1393   6.1425   6.1432   6.1454   6.2246   6.2258
     6.2264   6.2275   7.5415   7.5428   7.5438   7.5464   7.6429   7.6444
     7.8576   7.8591   7.8604   7.8617   8.9810   8.9819   8.9829   8.9837
     9.3416   9.3428

          k =-0.1667-0.5000 0.1667 (  7532 PWs)   bands (ev):

    -2.5409  -2.5403  -1.0461  -1.0455  -1.0428  -1.0412   0.4339   0.4346
     0.4365   0.4368   0.4391   0.4411   1.8957   1.8963   1.9026   1.9028
     1.9033   1.9037   3.3440   3.3443   3.3474   3.3479   3.3489   3.3497
     4.7077   4.7078   4.7083   4.7084   4.7724   4.7726   4.7759   4.7764
     4.8046   4.8049   6.1404   6.1410   6.1437   6.1454   6.2258   6.2259
     6.2263   6.2264   7.5420   7.5432   7.5444   7.5449   7.6435   7.6438
     7.8593   7.8594   7.8599   7.8601   8.9821   8.9821   8.9826   8.9827
     9.3418   9.3433

          k =-0.1667 0.5000-0.1667 (  7532 PWs)   bands (ev):

    -2.5409  -2.5403  -1.0463  -1.0458  -1.0422  -1.0413   0.4338   0.4347
     0.4369   0.4377   0.4386   0.4402   1.8956   1.8961   1.9027   1.9030
     1.9031   1.9040   3.3436   3.3440   3.3474   3.3479   3.3495   3.3498
     4.7077   4.7077   4.7078   4.7089   4.7720   4.7723   4.7764   4.7767
     4.8045   4.8048   6.1401   6.1407   6.1443   6.1453   6.2255   6.2259
     6.2260   6.2270   7.5423   7.5428   7.5443   7.5451   7.6435   7.6438
     7.8592   7.8594   7.8595   7.8607   8.9818   8.9819   8.9825   8.9834
     9.3417   9.3431

          k =-0.5000 0.1667 0.5000 (  7512 PWs)   bands (ev):

    -2.0436  -2.0410  -2.0387  -2.0365  -0.5521  -0.5494  -0.5471  -0.5449
     0.9234   0.9261   0.9284   0.9306   2.3770   2.3777   2.3791   2.3815
     2.3824   2.3828   2.3840   2.3860   3.8169   3.8176   3.8191   3.8214
     3.8224   3.8227   3.8240   3.8259   5.1717   5.1745   5.1770   5.1793
     5.2764   5.2773   5.2786   5.2810   5.2819   5.2825   5.2836   5.2856
     6.6698   6.6711   6.6724   6.6734   8.1014   8.1029   8.1040   8.1052
     8.4124   8.4149   8.4166   8.4188   9.3912   9.3921   9.3944   9.3967
     9.3977   9.3988

          k =-0.5000 0.5000 0.1667 (  7512 PWs)   bands (ev):

    -2.0420  -2.0410  -2.0385  -2.0383  -0.5504  -0.5494  -0.5469  -0.5468
     0.9251   0.9261   0.9286   0.9288   2.3775   2.3789   2.3795   2.3810
     2.3816   2.3832   2.3841   2.3847   3.8174   3.8189   3.8193   3.8209
     3.8215   3.8231   3.8241   3.8247   5.1734   5.1746   5.1771   5.1773
     5.2771   5.2784   5.2791   5.2804   5.2812   5.2829   5.2835   5.2843
     6.6706   6.6712   6.6724   6.6725   8.1022   8.1029   8.1041   8.1043
     8.4138   8.4147   8.4170   8.4171   9.3924   9.3935   9.3947   9.3958
     9.3979   9.3993

     the Fermi energy is     7.8193 ev

!    total energy              =   -1264.05475181 Ry
     Harris-Foulkes estimate   =   -1264.05475174 Ry
     estimated scf accuracy    <       0.00000076 Ry

     total all-electron energy =    -15540.623774 Ry

     The total energy is the sum of the following terms:

     one-electron contribution =     101.27799067 Ry
     hartree contribution      =       0.20239408 Ry
     xc contribution           =     -82.91855944 Ry
     ewald contribution        =    -172.93188273 Ry
     one-center paw contrib.   =   -1109.68743829 Ry
     smearing contrib. (-TS)   =       0.00274390 Ry

     convergence has been achieved in   8 iterations

     Forces acting on atoms (cartesian axes, Ry/au):

     atom    1 type  1   force =     0.00000024   -0.00001246    0.00000458
     atom    2 type  1   force =    -0.00010675    0.00021535    0.00007516
     atom    3 type  1   force =     0.00022871   -0.00001384   -0.00053036
     atom    4 type  1   force =    -0.00004454   -0.00016873   -0.00033719
     atom    5 type  1   force =    -0.00044464   -0.00039382    0.00033920
     atom    6 type  1   force =    -0.00015896    0.00042814   -0.00000250
     atom    7 type  1   force =    -0.00016382   -0.00054413    0.00034629
     atom    8 type  1   force =     0.00003929   -0.00007511   -0.00026256
     atom    9 type  1   force =    -0.00000155   -0.00006300    0.00012008
     atom   10 type  1   force =    -0.00019182   -0.00008914   -0.00067339
     atom   11 type  1   force =    -0.00023809   -0.00026099   -0.00039129
     atom   12 type  1   force =    -0.00010226    0.00003097   -0.00006514
     atom   13 type  1   force =    -0.00017681   -0.00034249   -0.00003101
     atom   14 type  1   force =    -0.00002708    0.00015348    0.00043744
     atom   15 type  1   force =    -0.00053016    0.00033317    0.00050579
     atom   16 type  1   force =     0.00063265    0.00051404    0.00012872
     atom   17 type  1   force =    -0.00042500    0.00004295    0.00008920
     atom   18 type  1   force =     0.00020000   -0.00006385    0.00043872
     atom   19 type  1   force =     0.00052188    0.00023217   -0.00008502
     atom   20 type  1   force =     0.00009048    0.00021599    0.00006172
     atom   21 type  1   force =     0.00020804   -0.00056346    0.00011774
     atom   22 type  1   force =    -0.00012343    0.00060116    0.00014063
     atom   23 type  1   force =     0.00013225   -0.00009640   -0.00020368
     atom   24 type  1   force =     0.00012631    0.00013609   -0.00008567
     atom   25 type  1   force =     0.00009516   -0.00018720    0.00033435
     atom   26 type  1   force =     0.00031101   -0.00021579   -0.00025849
     atom   27 type  1   force =    -0.00016953    0.00002473    0.00012399
     atom   28 type  1   force =    -0.00009644    0.00024265   -0.00007385
     atom   29 type  1   force =     0.00084034   -0.00035509   -0.00011060
     atom   30 type  1   force =    -0.00025801    0.00004655    0.00024303
     atom   31 type  1   force =    -0.00007934   -0.00006425   -0.00037018
     atom   32 type  1   force =    -0.00008817    0.00029234   -0.00002574

     Total force =     0.002764     Total SCF correction =     0.000527
     SCF correction compared to forces is large: reduce conv_thr to get better values


     Computing stress (Cartesian axis) and pressure

          total   stress  (Ry/bohr**3)                   (kbar)     P=   -1.57
  -0.00001068  -0.00000000  -0.00000000         -1.57     -0.00     -0.00
  -0.00000000  -0.00001068   0.00000000         -0.00     -1.57      0.00
  -0.00000000   0.00000000  -0.00001069         -0.00      0.00     -1.57


     Writing output data file fe_scf_fcc_2.save/
 
     init_run     :      1.07s CPU      1.17s WALL (       1 calls)
     electrons    :     13.69s CPU     14.85s WALL (       1 calls)
     forces       :      0.21s CPU      0.23s WALL (       1 calls)
     stress       :      0.36s CPU      0.37s WALL (       1 calls)

     Called by init_run:
     wfcinit      :      0.90s CPU      0.97s WALL (       1 calls)
     potinit      :      0.10s CPU      0.11s WALL (       1 calls)
     hinit0       :      0.04s CPU      0.06s WALL (       1 calls)

     Called by electrons:
     c_bands      :     11.41s CPU     11.79s WALL (       9 calls)
     sum_band     :      1.64s CPU      1.73s WALL (       9 calls)
     v_of_rho     :      0.04s CPU      0.06s WALL (       9 calls)
     newd         :      0.04s CPU      0.04s WALL (       9 calls)
     PAW_pot      :      0.59s CPU      0.59s WALL (       9 calls)
     mix_rho      :      0.05s CPU      0.05s WALL (       9 calls)

     Called by c_bands:
     init_us_2    :      0.15s CPU      0.16s WALL (     294 calls)
     cegterg      :     10.91s CPU     11.28s WALL (     126 calls)

     Called by sum_band:
     sum_band:bec :      0.01s CPU      0.01s WALL (     126 calls)
     addusdens    :      0.02s CPU      0.03s WALL (       9 calls)

     Called by *egterg:
     h_psi        :      7.33s CPU      7.65s WALL (     448 calls)
     s_psi        :      0.57s CPU      0.58s WALL (     448 calls)
     g_psi        :      0.03s CPU      0.04s WALL (     308 calls)
     cdiaghg      :      2.52s CPU      2.55s WALL (     420 calls)

     Called by h_psi:
     h_psi:pot    :      7.30s CPU      7.61s WALL (     448 calls)
     h_psi:calbec :      0.70s CPU      0.79s WALL (     448 calls)
     vloc_psi     :      6.01s CPU      6.22s WALL (     448 calls)
     add_vuspsi   :      0.59s CPU      0.59s WALL (     448 calls)

     General routines
     calbec       :      1.10s CPU      1.24s WALL (     644 calls)
     fft          :      0.08s CPU      0.11s WALL (     126 calls)
     ffts         :      0.00s CPU      0.00s WALL (       9 calls)
     fftw         :      6.76s CPU      7.01s WALL (   49112 calls)
 
     Parallel routines
     fft_scatt_xy :      0.77s CPU      0.80s WALL (   49247 calls)
     fft_scatt_yz :      3.48s CPU      3.63s WALL (   49247 calls)
 
     PWSCF        :    16.06s CPU        23.21s WALL

 
   This run was terminated on:   6:43:30   9Mar2020            

=------------------------------------------------------------------------------=
   JOB DONE.
=------------------------------------------------------------------------------=
