
     Program PWSCF v.6.3 starts on 20Oct2019 at  2:56:48 

     This program is part of the open-source Quantum ESPRESSO suite
     for quantum simulation of materials; please cite
         "P. Giannozzi et al., J. Phys.:Condens. Matter 21 395502 (2009);
         "P. Giannozzi et al., J. Phys.:Condens. Matter 29 465901 (2017);
          URL http://www.quantum-espresso.org", 
     in publications or presentations arising from this work. More details at
     http://www.quantum-espresso.org/quote

     Parallel version (MPI), running on     1 processors

     MPI processes distributed on     1 nodes
     Reading input from /cloud/Code/python/py_pwscf_converge/src/example/wd/runpwscf/file_10140.in
Warning: card &IONS ignored
Warning: card ION_DYNAMICS = 'BFGS', ignored
Warning: card / ignored
Warning: card &CELL ignored
Warning: card CELL_DYNAMICS = 'BFGS', ignored
Warning: card CELL_FACTOR = 2.0, ignored
Warning: card PRESS = 0.0, ignored
Warning: card / ignored

     Current dimensions of program PWSCF are:
     Max number of different atomic species (ntypx) = 10
     Max number of k-points (npk) =  40000
     Max angular momentum in pseudopotentials (lmaxx) =  3
               file Al.pbe-nl-kjpaw_psl.1.0.0.UPF: wavefunction(s)  3S 3P renormalized

     Subspace diagonalization in iterative solution of the eigenvalue problem:
     a serial algorithm will be used


     G-vector sticks info
     --------------------
     sticks:   dense  smooth     PW     G-vecs:    dense   smooth      PW
     Sum         341     341    129                 4697     4697    1045



     bravais-lattice index     =            0
     lattice parameter (alat)  =       4.0400  a.u.
     unit-cell volume          =      65.9393 (a.u.)^3
     number of atoms/cell      =            4
     number of atomic types    =            1
     number of electrons       =        12.00
     number of Kohn-Sham states=           10
     kinetic-energy cutoff     =      80.0000  Ry
     charge density cutoff     =     260.0000  Ry
     convergence threshold     =      1.0E-06
     mixing beta               =       0.1000
     number of iterations used =           10  TF        mixing
     Exchange-correlation      = SLA PW PBX PBC ( 1  4  3  4 0 0)

     celldm(1)=   4.040000  celldm(2)=   0.000000  celldm(3)=   0.000000
     celldm(4)=   0.000000  celldm(5)=   0.000000  celldm(6)=   0.000000

     crystal axes: (cart. coord. in units of alat)
               a(1) = (   1.000000   0.000000   0.000000 )  
               a(2) = (   0.000000   1.000000   0.000000 )  
               a(3) = (   0.000000   0.000000   1.000000 )  

     reciprocal axes: (cart. coord. in units 2 pi/alat)
               b(1) = (  1.000000  0.000000  0.000000 )  
               b(2) = (  0.000000  1.000000  0.000000 )  
               b(3) = (  0.000000  0.000000  1.000000 )  


     PseudoPot. # 1 for Al read from file:
     /opt/pp/Al.pbe-nl-kjpaw_psl.1.0.0.UPF
     MD5 check sum: 1b67f78b73fe58c7924490f171ce8a1e
     Pseudo is Projector augmented-wave + core cor, Zval =  3.0
     Generated using "atomic" code by A. Dal Corso v.6.3
     Shape of augmentation charge: PSQ
     Using radial grid of 1135 points,  4 beta functions with: 
                l(1) =   0
                l(2) =   0
                l(3) =   1
                l(4) =   1
     Q(r) pseudized with 0 coefficients 


     atomic species   valence    mass     pseudopotential
        Al             3.00    26.98200     Al( 1.00)

     No symmetry found



   Cartesian axes

     site n.     atom                  positions (alat units)
         1           Al  tau(   1) = (  -0.0001235   0.0000359   0.0002572  )
         2           Al  tau(   2) = (   0.5003009   0.4992819   0.0002658  )
         3           Al  tau(   3) = (   0.4996490   0.0001153   0.5011170  )
         4           Al  tau(   4) = (  -0.0000756   0.5008267   0.5006943  )

     number of k points=    32  Marzari-Vanderbilt smearing, width (Ry)=  0.0200
                       cart. coord. in units 2pi/alat
        k(    1) = (   0.1250000   0.1250000   0.1250000), wk =   0.0625000
        k(    2) = (   0.1250000   0.1250000   0.3750000), wk =   0.0625000
        k(    3) = (   0.1250000   0.3750000   0.3750000), wk =   0.0625000
        k(    4) = (   0.3750000   0.3750000   0.3750000), wk =   0.0625000
        k(    5) = (  -0.1250000  -0.1250000   0.1250000), wk =   0.0625000
        k(    6) = (  -0.1250000   0.1250000  -0.1250000), wk =   0.0625000
        k(    7) = (   0.1250000  -0.1250000  -0.1250000), wk =   0.0625000
        k(    8) = (  -0.1250000  -0.1250000   0.3750000), wk =   0.0625000
        k(    9) = (  -0.1250000   0.1250000  -0.3750000), wk =   0.0625000
        k(   10) = (   0.1250000  -0.1250000  -0.3750000), wk =   0.0625000
        k(   11) = (   0.3750000  -0.1250000   0.1250000), wk =   0.0625000
        k(   12) = (  -0.3750000  -0.1250000  -0.1250000), wk =   0.0625000
        k(   13) = (   0.3750000   0.1250000  -0.1250000), wk =   0.0625000
        k(   14) = (  -0.3750000   0.1250000   0.1250000), wk =   0.0625000
        k(   15) = (  -0.1250000   0.3750000   0.1250000), wk =   0.0625000
        k(   16) = (  -0.1250000  -0.3750000  -0.1250000), wk =   0.0625000
        k(   17) = (   0.1250000   0.3750000  -0.1250000), wk =   0.0625000
        k(   18) = (   0.1250000  -0.3750000   0.1250000), wk =   0.0625000
        k(   19) = (  -0.1250000  -0.3750000   0.3750000), wk =   0.0625000
        k(   20) = (  -0.1250000   0.3750000  -0.3750000), wk =   0.0625000
        k(   21) = (   0.1250000  -0.3750000  -0.3750000), wk =   0.0625000
        k(   22) = (   0.3750000   0.1250000  -0.3750000), wk =   0.0625000
        k(   23) = (  -0.3750000  -0.1250000  -0.3750000), wk =   0.0625000
        k(   24) = (   0.3750000  -0.1250000   0.3750000), wk =   0.0625000
        k(   25) = (  -0.3750000   0.1250000   0.3750000), wk =   0.0625000
        k(   26) = (   0.3750000  -0.3750000   0.1250000), wk =   0.0625000
        k(   27) = (  -0.3750000  -0.3750000  -0.1250000), wk =   0.0625000
        k(   28) = (   0.3750000   0.3750000  -0.1250000), wk =   0.0625000
        k(   29) = (  -0.3750000   0.3750000   0.1250000), wk =   0.0625000
        k(   30) = (  -0.3750000  -0.3750000   0.3750000), wk =   0.0625000
        k(   31) = (  -0.3750000   0.3750000  -0.3750000), wk =   0.0625000
        k(   32) = (   0.3750000  -0.3750000  -0.3750000), wk =   0.0625000

     Dense  grid:     4697 G-vectors     FFT dimensions: (  24,  24,  24)

     Estimated max dynamical RAM per process >      11.67 MB

     Initial potential from superposition of free atoms

     starting charge   11.99084, renormalised to   12.00000
     Starting wfcs are   16 randomized atomic wfcs
     Checking if some PAW data can be deallocated... 

     total cpu time spent up to now is        1.6 secs

     Self-consistent Calculation

     iteration #  1     ecut=    80.00 Ry     beta= 0.10
     Davidson diagonalization with overlap
     ethr =  1.00E-02,  avg # of iterations =  4.9

     total cpu time spent up to now is        3.2 secs

     total energy              =    -141.65277194 Ry
     Harris-Foulkes estimate   =    -141.80705064 Ry
     estimated scf accuracy    <       0.18113181 Ry

     iteration #  2     ecut=    80.00 Ry     beta= 0.10
     Davidson diagonalization with overlap
     ethr =  1.51E-03,  avg # of iterations =  1.0

     total cpu time spent up to now is        4.1 secs

     total energy              =    -141.16267705 Ry
     Harris-Foulkes estimate   =    -141.65534095 Ry
     estimated scf accuracy    <       0.15203186 Ry

     iteration #  3     ecut=    80.00 Ry     beta= 0.10
     Davidson diagonalization with overlap
     ethr =  1.27E-03,  avg # of iterations =  2.0

     total cpu time spent up to now is        5.2 secs

     total energy              =    -141.24393400 Ry
     Harris-Foulkes estimate   =    -141.25611161 Ry
     estimated scf accuracy    <       0.01567998 Ry

     iteration #  4     ecut=    80.00 Ry     beta= 0.10
     Davidson diagonalization with overlap
     ethr =  1.31E-04,  avg # of iterations =  1.0

     total cpu time spent up to now is        6.1 secs

     total energy              =    -141.24155137 Ry
     Harris-Foulkes estimate   =    -141.24436588 Ry
     estimated scf accuracy    <       0.01251689 Ry

     iteration #  5     ecut=    80.00 Ry     beta= 0.10
     Davidson diagonalization with overlap
     ethr =  1.04E-04,  avg # of iterations =  1.0

     total cpu time spent up to now is        7.0 secs

     total energy              =    -141.24343919 Ry
     Harris-Foulkes estimate   =    -141.24261912 Ry
     estimated scf accuracy    <       0.00078998 Ry

     iteration #  6     ecut=    80.00 Ry     beta= 0.10
     Davidson diagonalization with overlap
     ethr =  6.58E-06,  avg # of iterations =  2.8

     total cpu time spent up to now is        8.1 secs

     total energy              =    -141.24370522 Ry
     Harris-Foulkes estimate   =    -141.24370265 Ry
     estimated scf accuracy    <       0.00011182 Ry

     iteration #  7     ecut=    80.00 Ry     beta= 0.10
     Davidson diagonalization with overlap
     ethr =  9.32E-07,  avg # of iterations =  1.1

     total cpu time spent up to now is        9.1 secs

     total energy              =    -141.24289825 Ry
     Harris-Foulkes estimate   =    -141.24370671 Ry
     estimated scf accuracy    <       0.00010300 Ry

     iteration #  8     ecut=    80.00 Ry     beta= 0.10
     Davidson diagonalization with overlap
     ethr =  8.58E-07,  avg # of iterations =  2.0

     total cpu time spent up to now is       10.1 secs

     total energy              =    -141.24293354 Ry
     Harris-Foulkes estimate   =    -141.24294431 Ry
     estimated scf accuracy    <       0.00006470 Ry

     iteration #  9     ecut=    80.00 Ry     beta= 0.10
     Davidson diagonalization with overlap
     ethr =  5.39E-07,  avg # of iterations =  1.0

     total cpu time spent up to now is       11.4 secs

     total energy              =    -141.24282313 Ry
     Harris-Foulkes estimate   =    -141.24293466 Ry
     estimated scf accuracy    <       0.00000874 Ry

     iteration # 10     ecut=    80.00 Ry     beta= 0.10
     Davidson diagonalization with overlap
     ethr =  7.28E-08,  avg # of iterations =  3.0

     total cpu time spent up to now is       14.9 secs

     total energy              =    -141.24283233 Ry
     Harris-Foulkes estimate   =    -141.24283284 Ry
     estimated scf accuracy    <       0.00000186 Ry

     iteration # 11     ecut=    80.00 Ry     beta= 0.10
     Davidson diagonalization with overlap
     ethr =  1.55E-08,  avg # of iterations =  1.0

     total cpu time spent up to now is       17.6 secs

     total energy              =    -141.24283097 Ry
     Harris-Foulkes estimate   =    -141.24283237 Ry
     estimated scf accuracy    <       0.00000123 Ry

     iteration # 12     ecut=    80.00 Ry     beta= 0.10
     Davidson diagonalization with overlap
     ethr =  1.03E-08,  avg # of iterations =  2.0

     total cpu time spent up to now is       20.5 secs

     End of self-consistent calculation

          k = 0.1250 0.1250 0.1250 (   793 PWs)   bands (ev):

    30.9150  41.4375  41.4566  41.4754  52.4289  52.4492  52.4694  54.9323
    54.9422  54.9522

          k = 0.1250 0.1250 0.3750 (   798 PWs)   bands (ev):

    34.4078  39.0142  43.9430  43.9618  51.8120  51.8292  54.8781  54.8868
    55.6922  61.5172

          k = 0.1250 0.3750 0.3750 (   802 PWs)   bands (ev):

    37.4231  41.6579  41.6949  44.5500  50.4943  52.9068  52.9560  57.0467
    57.5686  60.7346

          k = 0.3750 0.3750 0.3750 (   795 PWs)   bands (ev):

    39.8886  43.9773  44.0153  44.0531  47.7754  47.8170  47.8586  51.6509
    66.9735  66.9767

          k =-0.1250-0.1250 0.1250 (   793 PWs)   bands (ev):

    30.9150  41.4415  41.4566  41.4714  52.4332  52.4491  52.4651  54.9344
    54.9423  54.9501

          k =-0.1250 0.1250-0.1250 (   793 PWs)   bands (ev):

    30.9150  41.4454  41.4565  41.4675  52.4373  52.4492  52.4609  54.9365
    54.9422  54.9481

          k = 0.1250-0.1250-0.1250 (   793 PWs)   bands (ev):

    30.9150  41.4433  41.4566  41.4696  52.4351  52.4493  52.4632  54.9353
    54.9422  54.9492

          k =-0.1250-0.1250 0.3750 (   798 PWs)   bands (ev):

    34.4078  39.0143  43.9430  43.9618  51.8120  51.8293  54.8782  54.8868
    55.6920  61.5171

          k =-0.1250 0.1250-0.3750 (   798 PWs)   bands (ev):

    34.4078  39.0143  43.9481  43.9567  51.8166  51.8245  54.8805  54.8845
    55.6920  61.5170

          k = 0.1250-0.1250-0.3750 (   798 PWs)   bands (ev):

    34.4078  39.0142  43.9481  43.9568  51.8166  51.8245  54.8805  54.8845
    55.6922  61.5166

          k = 0.3750-0.1250 0.1250 (   798 PWs)   bands (ev):

    34.4079  39.0141  43.9481  43.9568  51.8164  51.8244  54.8806  54.8847
    55.6922  61.5170

          k =-0.3750-0.1250-0.1250 (   798 PWs)   bands (ev):

    34.4079  39.0141  43.9444  43.9605  51.8133  51.8280  54.8784  54.8858
    55.6928  61.5171

          k = 0.3750 0.1250-0.1250 (   798 PWs)   bands (ev):

    34.4079  39.0141  43.9481  43.9568  51.8164  51.8244  54.8806  54.8847
    55.6923  61.5172

          k =-0.3750 0.1250 0.1250 (   798 PWs)   bands (ev):

    34.4079  39.0142  43.9444  43.9605  51.8134  51.8281  54.8785  54.8859
    55.6924  61.5172

          k =-0.1250 0.3750 0.1250 (   798 PWs)   bands (ev):

    34.4079  39.0141  43.9514  43.9538  51.8195  51.8217  54.8818  54.8829
    55.6921  61.5172

          k =-0.1250-0.3750-0.1250 (   798 PWs)   bands (ev):

    34.4079  39.0140  43.9479  43.9573  51.8162  51.8248  54.8803  54.8846
    55.6922  61.5172

          k = 0.1250 0.3750-0.1250 (   798 PWs)   bands (ev):

    34.4079  39.0141  43.9514  43.9538  51.8194  51.8217  54.8817  54.8829
    55.6925  61.5173

          k = 0.1250-0.3750 0.1250 (   798 PWs)   bands (ev):

    34.4079  39.0141  43.9479  43.9573  51.8162  51.8249  54.8803  54.8846
    55.6921  61.5172

          k =-0.1250-0.3750 0.3750 (   802 PWs)   bands (ev):

    37.4231  41.6664  41.6865  44.5499  50.4945  52.9179  52.9447  57.0460
    57.5695  60.7366

          k =-0.1250 0.3750-0.3750 (   802 PWs)   bands (ev):

    37.4231  41.6664  41.6865  44.5499  50.4944  52.9179  52.9447  57.0457
    57.5700  60.7342

          k = 0.1250-0.3750-0.3750 (   802 PWs)   bands (ev):

    37.4231  41.6579  41.6949  44.5501  50.4943  52.9068  52.9560  57.0463
    57.5688  60.7333

          k = 0.3750 0.1250-0.3750 (   802 PWs)   bands (ev):

    37.4231  41.6736  41.6792  44.5499  50.4943  52.9278  52.9352  57.0467
    57.5688  60.7369

          k =-0.3750-0.1250-0.3750 (   802 PWs)   bands (ev):

    37.4231  41.6655  41.6873  44.5498  50.4945  52.9171  52.9460  57.0469
    57.5684  60.7342

          k = 0.3750-0.1250 0.3750 (   802 PWs)   bands (ev):

    37.4231  41.6656  41.6873  44.5498  50.4943  52.9169  52.9459  57.0471
    57.5685  60.7340

          k =-0.3750 0.1250 0.3750 (   802 PWs)   bands (ev):

    37.4231  41.6736  41.6792  44.5499  50.4944  52.9278  52.9352  57.0464
    57.5688  60.7370

          k = 0.3750-0.3750 0.1250 (   802 PWs)   bands (ev):

    37.4231  41.6665  41.6863  44.5500  50.4941  52.9181  52.9445  57.0470
    57.5686  60.7368

          k =-0.3750-0.3750-0.1250 (   802 PWs)   bands (ev):

    37.4232  41.6547  41.6981  44.5498  50.4945  52.9025  52.9603  57.0449
    57.5705  60.7340

          k = 0.3750 0.3750-0.1250 (   802 PWs)   bands (ev):

    37.4232  41.6547  41.6981  44.5499  50.4943  52.9024  52.9602  57.0470
    57.5685  60.7312

          k =-0.3750 0.3750 0.1250 (   802 PWs)   bands (ev):

    37.4231  41.6665  41.6863  44.5499  50.4944  52.9182  52.9446  57.0423
    57.5731  60.7353

          k =-0.3750-0.3750 0.3750 (   795 PWs)   bands (ev):

    39.8885  43.9852  44.0153  44.0451  47.7842  47.8169  47.8498  51.6510
    66.9742  66.9778

          k =-0.3750 0.3750-0.3750 (   795 PWs)   bands (ev):

    39.8885  43.9930  44.0152  44.0373  47.7927  47.8169  47.8413  51.6511
    66.9737  66.9772

          k = 0.3750-0.3750-0.3750 (   795 PWs)   bands (ev):

    39.8885  43.9888  44.0152  44.0414  47.7882  47.8170  47.8459  51.6509
    66.9748  66.9765

     the Fermi energy is    52.6610 ev

!    total energy              =    -141.24283112 Ry
     Harris-Foulkes estimate   =    -141.24283111 Ry
     estimated scf accuracy    <       0.00000005 Ry

     total all-electron energy =     -1925.813953 Ry

     The total energy is the sum of the following terms:

     one-electron contribution =      58.67256144 Ry
     hartree contribution      =       0.21191584 Ry
     xc contribution           =     -17.28512935 Ry
     ewald contribution        =     -40.85514762 Ry
     one-center paw contrib.   =    -141.98641035 Ry
     smearing contrib. (-TS)   =      -0.00062107 Ry

     convergence has been achieved in  12 iterations

     Forces acting on atoms (cartesian axes, Ry/au):

     atom    1 type  1   force =     0.00200522   -0.00036011    0.01644146
     atom    2 type  1   force =    -0.00321006    0.00370500    0.01642133
     atom    3 type  1   force =    -0.00057523   -0.00073115   -0.01727599
     atom    4 type  1   force =     0.00178007   -0.00261375   -0.01558680

     Total force =     0.033473     Total SCF correction =     0.000009


     Computing stress (Cartesian axis) and pressure

          total   stress  (Ry/bohr**3)                   (kbar)     P=59673.57
   0.40565825   0.00000097   0.00000073      59674.38      0.14      0.11
   0.00000097   0.40564685  -0.00000101          0.14  59672.70     -0.15
   0.00000073  -0.00000101   0.40565316          0.11     -0.15  59673.63


     Writing output data file fe_scf_fcc_2.save/

     init_run     :      1.06s CPU      1.08s WALL (       1 calls)
     electrons    :     18.72s CPU     18.97s WALL (       1 calls)
     forces       :      0.25s CPU      0.25s WALL (       1 calls)
     stress       :      0.72s CPU      0.72s WALL (       1 calls)

     Called by init_run:
     wfcinit      :      0.45s CPU      0.45s WALL (       1 calls)
     potinit      :      0.29s CPU      0.31s WALL (       1 calls)
     hinit0       :      0.30s CPU      0.30s WALL (       1 calls)

     Called by electrons:
     c_bands      :     11.26s CPU     11.45s WALL (      12 calls)
     sum_band     :      2.12s CPU      2.17s WALL (      12 calls)
     v_of_rho     :      0.26s CPU      0.25s WALL (      13 calls)
     newd         :      0.17s CPU      0.16s WALL (      13 calls)
     PAW_pot      :      5.17s CPU      5.21s WALL (      13 calls)
     mix_rho      :      0.04s CPU      0.03s WALL (      12 calls)

     Called by c_bands:
     init_us_2    :      0.42s CPU      0.39s WALL (     864 calls)
     cegterg      :     10.76s CPU     10.91s WALL (     384 calls)

     Called by sum_band:
     sum_band:bec :      0.00s CPU      0.01s WALL (     384 calls)
     addusdens    :      0.07s CPU      0.09s WALL (      12 calls)

     Called by *egterg:
     h_psi        :      9.62s CPU      9.69s WALL (    1145 calls)
     s_psi        :      0.26s CPU      0.33s WALL (    1145 calls)
     g_psi        :      0.05s CPU      0.05s WALL (     729 calls)
     cdiaghg      :      0.29s CPU      0.35s WALL (    1113 calls)

     Called by h_psi:
     h_psi:pot    :      9.57s CPU      9.65s WALL (    1145 calls)
     h_psi:calbec :      0.36s CPU      0.38s WALL (    1145 calls)
     vloc_psi     :      8.80s CPU      8.88s WALL (    1145 calls)
     add_vuspsi   :      0.40s CPU      0.38s WALL (    1145 calls)

     General routines
     calbec       :      0.56s CPU      0.61s WALL (    1689 calls)
     fft          :      0.17s CPU      0.19s WALL (     169 calls)
     ffts         :      0.02s CPU      0.01s WALL (      12 calls)
     fftw         :      9.78s CPU      9.81s WALL (   23700 calls)

     Parallel routines

     PWSCF        :    21.26s CPU        21.58s WALL


   This run was terminated on:   2:57: 9  20Oct2019            

=------------------------------------------------------------------------------=
   JOB DONE.
=------------------------------------------------------------------------------=
