
     Program PWSCF v.6.3 starts on 22Oct2019 at 19: 4:12 

     This program is part of the open-source Quantum ESPRESSO suite
     for quantum simulation of materials; please cite
         "P. Giannozzi et al., J. Phys.:Condens. Matter 21 395502 (2009);
         "P. Giannozzi et al., J. Phys.:Condens. Matter 29 465901 (2017);
          URL http://www.quantum-espresso.org", 
     in publications or presentations arising from this work. More details at
     http://www.quantum-espresso.org/quote

     Parallel version (MPI & OpenMP), running on      20 processor cores
     Number of MPI processes:                20
     Threads/MPI process:                     1

     MPI processes distributed on     1 nodes
     R & G space division:  proc/nbgrp/npool/nimage =      20
     Reading input from /rds/homes/b/bxp912/jobs/20191022_test/wd/runpwscf/file_10088.in
Warning: card &IONS ignored
Warning: card ION_DYNAMICS = 'BFGS', ignored
Warning: card / ignored
Warning: card &CELL ignored
Warning: card CELL_DYNAMICS = 'BFGS', ignored
Warning: card CELL_FACTOR = 2.0, ignored
Warning: card PRESS = 0.0, ignored
Warning: card / ignored

     Current dimensions of program PWSCF are:
     Max number of different atomic species (ntypx) = 10
     Max number of k-points (npk) =  40000
     Max angular momentum in pseudopotentials (lmaxx) =  3
     Message from routine read_upf::
     Pseudo file /rds/homes/b/bxp912/pp/Al.pbe-nl-kjpaw_psl.1.0.0.UPF has been successfully fixed on the fly.
To avoid this message in the future you can permanently fix 
 your pseudo files following instructions given in: 
https://gitlab.com/QEF/q-e/blob/master/upftools/how_to_fix_upf.md
               file Al.pbe-nl-kjpaw_psl.1.0.0.UPF: wavefunction(s)  3S 3P renormalized

     Subspace diagonalization in iterative solution of the eigenvalue problem:
     a serial algorithm will be used

 
     Parallelization info
     --------------------
     sticks:   dense  smooth     PW     G-vecs:    dense   smooth      PW
     Min           8       7      2                   89       69      14
     Max          10       8      4                   94       74      17
     Sum         177     149     57                 1839     1419     305
 


     bravais-lattice index     =            0
     lattice parameter (alat)  =       4.0400  a.u.
     unit-cell volume          =      65.9393 (a.u.)^3
     number of atoms/cell      =            4
     number of atomic types    =            1
     number of electrons       =        12.00
     number of Kohn-Sham states=           10
     kinetic-energy cutoff     =      30.0000  Ry
     charge density cutoff     =     140.0000  Ry
     convergence threshold     =      1.0E-06
     mixing beta               =       0.1000
     number of iterations used =           10  TF        mixing
     Exchange-correlation      = SLA PW PBX PBC ( 1  4  3  4 0 0)

     celldm(1)=   4.040000  celldm(2)=   0.000000  celldm(3)=   0.000000
     celldm(4)=   0.000000  celldm(5)=   0.000000  celldm(6)=   0.000000

     crystal axes: (cart. coord. in units of alat)
               a(1) = (   1.000000   0.000000   0.000000 )  
               a(2) = (   0.000000   1.000000   0.000000 )  
               a(3) = (   0.000000   0.000000   1.000000 )  

     reciprocal axes: (cart. coord. in units 2 pi/alat)
               b(1) = (  1.000000  0.000000  0.000000 )  
               b(2) = (  0.000000  1.000000  0.000000 )  
               b(3) = (  0.000000  0.000000  1.000000 )  


     PseudoPot. # 1 for Al read from file:
     /rds/homes/b/bxp912/pp/Al.pbe-nl-kjpaw_psl.1.0.0.UPF
     MD5 check sum: 339dbea23cf3ab9a065ad45c0f9085d7
     Pseudo is Projector augmented-wave + core cor, Zval =  3.0
     Generated using "atomic" code by A. Dal Corso v.5.1
     Shape of augmentation charge: PSQ
     Using radial grid of 1135 points,  4 beta functions with: 
                l(1) =   0
                l(2) =   0
                l(3) =   1
                l(4) =   1
     Q(r) pseudized with 0 coefficients 


     atomic species   valence    mass     pseudopotential
        Al             3.00    26.98200     Al( 1.00)

     No symmetry found



   Cartesian axes

     site n.     atom                  positions (alat units)
         1           Al  tau(   1) = (  -0.0001235   0.0000359   0.0002572  )
         2           Al  tau(   2) = (   0.5003009   0.4992819   0.0002658  )
         3           Al  tau(   3) = (   0.4996490   0.0001153   0.5011170  )
         4           Al  tau(   4) = (  -0.0000756   0.5008267   0.5006943  )

     number of k points=    32  Marzari-Vanderbilt smearing, width (Ry)=  0.0200
                       cart. coord. in units 2pi/alat
        k(    1) = (   0.1250000   0.1250000   0.1250000), wk =   0.0625000
        k(    2) = (   0.1250000   0.1250000   0.3750000), wk =   0.0625000
        k(    3) = (   0.1250000   0.3750000   0.3750000), wk =   0.0625000
        k(    4) = (   0.3750000   0.3750000   0.3750000), wk =   0.0625000
        k(    5) = (  -0.1250000  -0.1250000   0.1250000), wk =   0.0625000
        k(    6) = (  -0.1250000   0.1250000  -0.1250000), wk =   0.0625000
        k(    7) = (   0.1250000  -0.1250000  -0.1250000), wk =   0.0625000
        k(    8) = (  -0.1250000  -0.1250000   0.3750000), wk =   0.0625000
        k(    9) = (  -0.1250000   0.1250000  -0.3750000), wk =   0.0625000
        k(   10) = (   0.1250000  -0.1250000  -0.3750000), wk =   0.0625000
        k(   11) = (   0.3750000  -0.1250000   0.1250000), wk =   0.0625000
        k(   12) = (  -0.3750000  -0.1250000  -0.1250000), wk =   0.0625000
        k(   13) = (   0.3750000   0.1250000  -0.1250000), wk =   0.0625000
        k(   14) = (  -0.3750000   0.1250000   0.1250000), wk =   0.0625000
        k(   15) = (  -0.1250000   0.3750000   0.1250000), wk =   0.0625000
        k(   16) = (  -0.1250000  -0.3750000  -0.1250000), wk =   0.0625000
        k(   17) = (   0.1250000   0.3750000  -0.1250000), wk =   0.0625000
        k(   18) = (   0.1250000  -0.3750000   0.1250000), wk =   0.0625000
        k(   19) = (  -0.1250000  -0.3750000   0.3750000), wk =   0.0625000
        k(   20) = (  -0.1250000   0.3750000  -0.3750000), wk =   0.0625000
        k(   21) = (   0.1250000  -0.3750000  -0.3750000), wk =   0.0625000
        k(   22) = (   0.3750000   0.1250000  -0.3750000), wk =   0.0625000
        k(   23) = (  -0.3750000  -0.1250000  -0.3750000), wk =   0.0625000
        k(   24) = (   0.3750000  -0.1250000   0.3750000), wk =   0.0625000
        k(   25) = (  -0.3750000   0.1250000   0.3750000), wk =   0.0625000
        k(   26) = (   0.3750000  -0.3750000   0.1250000), wk =   0.0625000
        k(   27) = (  -0.3750000  -0.3750000  -0.1250000), wk =   0.0625000
        k(   28) = (   0.3750000   0.3750000  -0.1250000), wk =   0.0625000
        k(   29) = (  -0.3750000   0.3750000   0.1250000), wk =   0.0625000
        k(   30) = (  -0.3750000  -0.3750000   0.3750000), wk =   0.0625000
        k(   31) = (  -0.3750000   0.3750000  -0.3750000), wk =   0.0625000
        k(   32) = (   0.3750000  -0.3750000  -0.3750000), wk =   0.0625000

     Dense  grid:     1839 G-vectors     FFT dimensions: (  15,  15,  15)

     Smooth grid:     1419 G-vectors     FFT dimensions: (  15,  15,  15)

     Estimated max dynamical RAM per process >       0.38 MB

     Estimated total dynamical RAM >       7.56 MB

     Initial potential from superposition of free atoms

     starting charge   11.99084, renormalised to   12.00000
     Starting wfcs are   16 randomized atomic wfcs
     Checking if some PAW data can be deallocated... 

     total cpu time spent up to now is        0.8 secs

     Self-consistent Calculation

     iteration #  1     ecut=    30.00 Ry     beta= 0.10
     Davidson diagonalization with overlap
     ethr =  1.00E-02,  avg # of iterations =  4.6

     total cpu time spent up to now is        1.0 secs

     total energy              =    -141.63483585 Ry
     Harris-Foulkes estimate   =    -141.78948270 Ry
     estimated scf accuracy    <       0.18077379 Ry

     iteration #  2     ecut=    30.00 Ry     beta= 0.10
     Davidson diagonalization with overlap
     ethr =  1.51E-03,  avg # of iterations =  1.0

     total cpu time spent up to now is        1.1 secs

     total energy              =    -141.14519131 Ry
     Harris-Foulkes estimate   =    -141.63838698 Ry
     estimated scf accuracy    <       0.15263170 Ry

     iteration #  3     ecut=    30.00 Ry     beta= 0.10
     Davidson diagonalization with overlap
     ethr =  1.27E-03,  avg # of iterations =  2.0

     total cpu time spent up to now is        1.2 secs

     total energy              =    -141.22465001 Ry
     Harris-Foulkes estimate   =    -141.24380056 Ry
     estimated scf accuracy    <       0.01644214 Ry

     iteration #  4     ecut=    30.00 Ry     beta= 0.10
     Davidson diagonalization with overlap
     ethr =  1.37E-04,  avg # of iterations =  1.1

     total cpu time spent up to now is        1.3 secs

     total energy              =    -141.22399403 Ry
     Harris-Foulkes estimate   =    -141.22532117 Ry
     estimated scf accuracy    <       0.01240793 Ry

     iteration #  5     ecut=    30.00 Ry     beta= 0.10
     Davidson diagonalization with overlap
     ethr =  1.03E-04,  avg # of iterations =  1.0

     total cpu time spent up to now is        1.3 secs

     total energy              =    -141.22638620 Ry
     Harris-Foulkes estimate   =    -141.22519904 Ry
     estimated scf accuracy    <       0.00039382 Ry

     iteration #  6     ecut=    30.00 Ry     beta= 0.10
     Davidson diagonalization with overlap
     ethr =  3.28E-06,  avg # of iterations =  2.9

     total cpu time spent up to now is        1.5 secs

     total energy              =    -141.22617228 Ry
     Harris-Foulkes estimate   =    -141.22657717 Ry
     estimated scf accuracy    <       0.00004703 Ry

     iteration #  7     ecut=    30.00 Ry     beta= 0.10
     Davidson diagonalization with overlap
     ethr =  3.92E-07,  avg # of iterations =  1.0

     total cpu time spent up to now is        1.6 secs

     total energy              =    -141.22506736 Ry
     Harris-Foulkes estimate   =    -141.22617525 Ry
     estimated scf accuracy    <       0.00004190 Ry

     iteration #  8     ecut=    30.00 Ry     beta= 0.10
     Davidson diagonalization with overlap
     ethr =  3.49E-07,  avg # of iterations =  3.0

     total cpu time spent up to now is        1.7 secs

     total energy              =    -141.22517788 Ry
     Harris-Foulkes estimate   =    -141.22514011 Ry
     estimated scf accuracy    <       0.00000620 Ry

     iteration #  9     ecut=    30.00 Ry     beta= 0.10
     Davidson diagonalization with overlap
     ethr =  5.17E-08,  avg # of iterations =  2.0

     total cpu time spent up to now is        1.8 secs

     total energy              =    -141.22508105 Ry
     Harris-Foulkes estimate   =    -141.22517870 Ry
     estimated scf accuracy    <       0.00000867 Ry

     iteration # 10     ecut=    30.00 Ry     beta= 0.10
     Davidson diagonalization with overlap
     ethr =  5.17E-08,  avg # of iterations =  3.0

     total cpu time spent up to now is        1.9 secs

     total energy              =    -141.22508980 Ry
     Harris-Foulkes estimate   =    -141.22508957 Ry
     estimated scf accuracy    <       0.00000119 Ry

     iteration # 11     ecut=    30.00 Ry     beta= 0.10
     Davidson diagonalization with overlap
     ethr =  9.90E-09,  avg # of iterations =  2.0

     total cpu time spent up to now is        2.0 secs

     End of self-consistent calculation

          k = 0.1250 0.1250 0.1250 (   181 PWs)   bands (ev):

    30.9219  41.4646  41.4825  41.5025  52.4651  52.4856  52.5057  54.9551
    54.9650  54.9750

          k = 0.1250 0.1250 0.3750 (   185 PWs)   bands (ev):

    34.4149  39.0204  43.9697  43.9887  51.8402  51.8575  54.9075  54.9162
    55.7194  61.5457

          k = 0.1250 0.3750 0.3750 (   181 PWs)   bands (ev):

    37.4298  41.6741  41.7110  44.5720  50.5209  52.9470  52.9962  57.0914
    57.6090  60.7709

          k = 0.3750 0.3750 0.3750 (   178 PWs)   bands (ev):

    39.8948  44.0005  44.0379  44.0760  47.8120  47.8533  47.8947  51.6839
    67.0149  67.0186

          k =-0.1250-0.1250 0.1250 (   181 PWs)   bands (ev):

    30.9219  41.4684  41.4828  41.4984  52.4694  52.4854  52.5015  54.9572
    54.9650  54.9730

          k =-0.1250 0.1250-0.1250 (   181 PWs)   bands (ev):

    30.9219  41.4719  41.4836  41.4941  52.4735  52.4855  52.4973  54.9592
    54.9651  54.9709

          k = 0.1250-0.1250-0.1250 (   181 PWs)   bands (ev):

    30.9219  41.4701  41.4831  41.4964  52.4714  52.4855  52.4995  54.9581
    54.9650  54.9720

          k =-0.1250-0.1250 0.3750 (   185 PWs)   bands (ev):

    34.4149  39.0205  43.9697  43.9886  51.8402  51.8575  54.9076  54.9163
    55.7191  61.5460

          k =-0.1250 0.1250-0.3750 (   185 PWs)   bands (ev):

    34.4149  39.0205  43.9748  43.9835  51.8448  51.8528  54.9099  54.9139
    55.7192  61.5458

          k = 0.1250-0.1250-0.3750 (   185 PWs)   bands (ev):

    34.4149  39.0204  43.9749  43.9836  51.8448  51.8528  54.9099  54.9139
    55.7194  61.5455

          k = 0.3750-0.1250 0.1250 (   185 PWs)   bands (ev):

    34.4150  39.0203  43.9748  43.9836  51.8446  51.8527  54.9101  54.9141
    55.7193  61.5457

          k =-0.3750-0.1250-0.1250 (   185 PWs)   bands (ev):

    34.4150  39.0203  43.9712  43.9873  51.8416  51.8563  54.9079  54.9153
    55.7200  61.5460

          k = 0.3750 0.1250-0.1250 (   185 PWs)   bands (ev):

    34.4150  39.0203  43.9748  43.9836  51.8446  51.8526  54.9101  54.9141
    55.7194  61.5458

          k =-0.3750 0.1250 0.1250 (   185 PWs)   bands (ev):

    34.4150  39.0203  43.9711  43.9873  51.8416  51.8563  54.9080  54.9153
    55.7196  61.5461

          k =-0.1250 0.3750 0.1250 (   185 PWs)   bands (ev):

    34.4150  39.0203  43.9781  43.9806  51.8477  51.8500  54.9112  54.9124
    55.7193  61.5459

          k =-0.1250-0.3750-0.1250 (   185 PWs)   bands (ev):

    34.4150  39.0202  43.9746  43.9841  51.8444  51.8531  54.9097  54.9141
    55.7194  61.5460

          k = 0.1250 0.3750-0.1250 (   185 PWs)   bands (ev):

    34.4150  39.0202  43.9781  43.9806  51.8477  51.8499  54.9111  54.9123
    55.7196  61.5458

          k = 0.1250-0.3750 0.1250 (   185 PWs)   bands (ev):

    34.4150  39.0203  43.9746  43.9841  51.8445  51.8531  54.9097  54.9140
    55.7192  61.5460

          k =-0.1250-0.3750 0.3750 (   181 PWs)   bands (ev):

    37.4298  41.6825  41.7027  44.5718  50.5210  52.9581  52.9850  57.0908
    57.6099  60.7736

          k =-0.1250 0.3750-0.3750 (   181 PWs)   bands (ev):

    37.4298  41.6825  41.7027  44.5719  50.5210  52.9580  52.9849  57.0904
    57.6104  60.7737

          k = 0.1250-0.3750-0.3750 (   181 PWs)   bands (ev):

    37.4298  41.6741  41.7110  44.5720  50.5209  52.9470  52.9962  57.0910
    57.6092  60.7739

          k = 0.3750 0.1250-0.3750 (   181 PWs)   bands (ev):

    37.4298  41.6897  41.6953  44.5719  50.5208  52.9679  52.9754  57.0914
    57.6092  60.7768

          k =-0.3750-0.1250-0.3750 (   181 PWs)   bands (ev):

    37.4298  41.6817  41.7034  44.5718  50.5211  52.9572  52.9862  57.0916
    57.6088  60.7738

          k = 0.3750-0.1250 0.3750 (   181 PWs)   bands (ev):

    37.4298  41.6817  41.7034  44.5718  50.5209  52.9571  52.9861  57.0918
    57.6089  60.7731

          k =-0.3750 0.1250 0.3750 (   181 PWs)   bands (ev):

    37.4298  41.6897  41.6953  44.5719  50.5210  52.9680  52.9755  57.0911
    57.6092  60.7766

          k = 0.3750-0.3750 0.1250 (   181 PWs)   bands (ev):

    37.4298  41.6826  41.7025  44.5719  50.5207  52.9582  52.9848  57.0917
    57.6090  60.7766

          k =-0.3750-0.3750-0.1250 (   181 PWs)   bands (ev):

    37.4299  41.6709  41.7142  44.5718  50.5211  52.9426  53.0006  57.0896
    57.6110  60.7765

          k = 0.3750 0.3750-0.1250 (   181 PWs)   bands (ev):

    37.4299  41.6709  41.7142  44.5719  50.5209  52.9425  53.0005  57.0917
    57.6089  60.7782

          k =-0.3750 0.3750 0.1250 (   181 PWs)   bands (ev):

    37.4299  41.6826  41.7024  44.5719  50.5210  52.9583  52.9850  57.0870
    57.6135  60.7754

          k =-0.3750-0.3750 0.3750 (   178 PWs)   bands (ev):

    39.8948  44.0084  44.0381  44.0680  47.8206  47.8532  47.8861  51.6840
    67.0135  67.0178

          k =-0.3750 0.3750-0.3750 (   178 PWs)   bands (ev):

    39.8948  44.0159  44.0383  44.0601  47.8291  47.8533  47.8775  51.6841
    67.0147  67.0165

          k = 0.3750-0.3750-0.3750 (   178 PWs)   bands (ev):

    39.8948  44.0119  44.0380  44.0643  47.8247  47.8533  47.8821  51.6840
    67.0137  67.0171

     the Fermi energy is    52.6986 ev

!    total energy              =    -141.22508890 Ry
     Harris-Foulkes estimate   =    -141.22509007 Ry
     estimated scf accuracy    <       0.00000031 Ry

     total all-electron energy =     -1925.796217 Ry

     The total energy is the sum of the following terms:

     one-electron contribution =      58.69391770 Ry
     hartree contribution      =       0.21139773 Ry
     xc contribution           =     -17.28400616 Ry
     ewald contribution        =     -40.85514766 Ry
     one-center paw contrib.   =    -141.99067359 Ry
     smearing contrib. (-TS)   =      -0.00057693 Ry

     convergence has been achieved in  11 iterations

     Forces acting on atoms (cartesian axes, Ry/au):

     atom    1 type  1   force =     0.00201864   -0.00043074    0.01657387
     atom    2 type  1   force =    -0.00333406    0.00387418    0.01654054
     atom    3 type  1   force =    -0.00049349   -0.00067109   -0.01750550
     atom    4 type  1   force =     0.00180891   -0.00277234   -0.01560891

     Total force =     0.033770     Total SCF correction =     0.000018


     Computing stress (Cartesian axis) and pressure

          total   stress  (Ry/bohr**3)                   (kbar)     P=59552.52
   0.40483518   0.00000111   0.00000083      59553.30      0.16      0.12
   0.00000111   0.40482464  -0.00000111          0.16  59551.75     -0.16
   0.00000083  -0.00000111   0.40482983          0.12     -0.16  59552.51


     Writing output data file fe_scf_fcc_2.save/
 
     init_run     :      0.09s CPU      0.13s WALL (       1 calls)
     electrons    :      1.09s CPU      1.23s WALL (       1 calls)
     forces       :      0.01s CPU      0.01s WALL (       1 calls)
     stress       :      0.01s CPU      0.01s WALL (       1 calls)

     Called by init_run:
     wfcinit      :      0.04s CPU      0.05s WALL (       1 calls)
     potinit      :      0.01s CPU      0.02s WALL (       1 calls)
     hinit0       :      0.03s CPU      0.06s WALL (       1 calls)

     Called by electrons:
     c_bands      :      0.83s CPU      0.93s WALL (      11 calls)
     sum_band     :      0.12s CPU      0.13s WALL (      11 calls)
     v_of_rho     :      0.00s CPU      0.01s WALL (      12 calls)
     newd         :      0.00s CPU      0.00s WALL (      12 calls)
     PAW_pot      :      0.13s CPU      0.15s WALL (      12 calls)
     mix_rho      :      0.00s CPU      0.00s WALL (      11 calls)

     Called by c_bands:
     init_us_2    :      0.01s CPU      0.01s WALL (     800 calls)
     cegterg      :      0.81s CPU      0.91s WALL (     352 calls)

     Called by sum_band:
     sum_band:bec :      0.00s CPU      0.00s WALL (     352 calls)
     addusdens    :      0.00s CPU      0.00s WALL (      11 calls)

     Called by *egterg:
     h_psi        :      0.54s CPU      0.61s WALL (    1140 calls)
     s_psi        :      0.01s CPU      0.01s WALL (    1140 calls)
     g_psi        :      0.00s CPU      0.00s WALL (     756 calls)
     cdiaghg      :      0.20s CPU      0.22s WALL (    1108 calls)

     Called by h_psi:
     h_psi:pot    :      0.54s CPU      0.61s WALL (    1140 calls)
     h_psi:calbec :      0.06s CPU      0.07s WALL (    1140 calls)
     vloc_psi     :      0.47s CPU      0.53s WALL (    1140 calls)
     add_vuspsi   :      0.01s CPU      0.01s WALL (    1140 calls)

     General routines
     calbec       :      0.08s CPU      0.09s WALL (    1652 calls)
     fft          :      0.02s CPU      0.06s WALL (     180 calls)
     ffts         :      0.00s CPU      0.00s WALL (      23 calls)
     fftw         :      0.52s CPU      0.58s WALL (   22494 calls)
     interpolate  :      0.00s CPU      0.00s WALL (      12 calls)
 
     Parallel routines
     fft_scatt_xy :      0.03s CPU      0.04s WALL (   22697 calls)
     fft_scatt_yz :      0.41s CPU      0.46s WALL (   22697 calls)
 
     PWSCF        :     1.89s CPU         2.21s WALL

 
   This run was terminated on:  19: 4:15  22Oct2019            

=------------------------------------------------------------------------------=
   JOB DONE.
=------------------------------------------------------------------------------=
