
     Program PWSCF v.6.3 starts on 22Oct2019 at 19: 3:28 

     This program is part of the open-source Quantum ESPRESSO suite
     for quantum simulation of materials; please cite
         "P. Giannozzi et al., J. Phys.:Condens. Matter 21 395502 (2009);
         "P. Giannozzi et al., J. Phys.:Condens. Matter 29 465901 (2017);
          URL http://www.quantum-espresso.org", 
     in publications or presentations arising from this work. More details at
     http://www.quantum-espresso.org/quote

     Parallel version (MPI & OpenMP), running on      20 processor cores
     Number of MPI processes:                20
     Threads/MPI process:                     1

     MPI processes distributed on     1 nodes
     R & G space division:  proc/nbgrp/npool/nimage =      20
     Reading input from /rds/homes/b/bxp912/jobs/20191022_test/wd/runpwscf/file_10073.in
Warning: card &IONS ignored
Warning: card ION_DYNAMICS = 'BFGS', ignored
Warning: card / ignored
Warning: card &CELL ignored
Warning: card CELL_DYNAMICS = 'BFGS', ignored
Warning: card CELL_FACTOR = 2.0, ignored
Warning: card PRESS = 0.0, ignored
Warning: card / ignored

     Current dimensions of program PWSCF are:
     Max number of different atomic species (ntypx) = 10
     Max number of k-points (npk) =  40000
     Max angular momentum in pseudopotentials (lmaxx) =  3
     Message from routine read_upf::
     Pseudo file /rds/homes/b/bxp912/pp/Al.pbe-nl-kjpaw_psl.1.0.0.UPF has been successfully fixed on the fly.
To avoid this message in the future you can permanently fix 
 your pseudo files following instructions given in: 
https://gitlab.com/QEF/q-e/blob/master/upftools/how_to_fix_upf.md
               file Al.pbe-nl-kjpaw_psl.1.0.0.UPF: wavefunction(s)  3S 3P renormalized

     Subspace diagonalization in iterative solution of the eigenvalue problem:
     a serial algorithm will be used

 
     Parallelization info
     --------------------
     sticks:   dense  smooth     PW     G-vecs:    dense   smooth      PW
     Min           7       7      3                   69       69      17
     Max           8       8      4                   74       74      20
     Sum         149     149     61                 1419     1419     365
 


     bravais-lattice index     =            0
     lattice parameter (alat)  =       4.0400  a.u.
     unit-cell volume          =      65.9393 (a.u.)^3
     number of atoms/cell      =            4
     number of atomic types    =            1
     number of electrons       =        12.00
     number of Kohn-Sham states=           10
     kinetic-energy cutoff     =      35.0000  Ry
     charge density cutoff     =     120.0000  Ry
     convergence threshold     =      1.0E-06
     mixing beta               =       0.1000
     number of iterations used =           10  TF        mixing
     Exchange-correlation      = SLA PW PBX PBC ( 1  4  3  4 0 0)

     celldm(1)=   4.040000  celldm(2)=   0.000000  celldm(3)=   0.000000
     celldm(4)=   0.000000  celldm(5)=   0.000000  celldm(6)=   0.000000

     crystal axes: (cart. coord. in units of alat)
               a(1) = (   1.000000   0.000000   0.000000 )  
               a(2) = (   0.000000   1.000000   0.000000 )  
               a(3) = (   0.000000   0.000000   1.000000 )  

     reciprocal axes: (cart. coord. in units 2 pi/alat)
               b(1) = (  1.000000  0.000000  0.000000 )  
               b(2) = (  0.000000  1.000000  0.000000 )  
               b(3) = (  0.000000  0.000000  1.000000 )  


     PseudoPot. # 1 for Al read from file:
     /rds/homes/b/bxp912/pp/Al.pbe-nl-kjpaw_psl.1.0.0.UPF
     MD5 check sum: 339dbea23cf3ab9a065ad45c0f9085d7
     Pseudo is Projector augmented-wave + core cor, Zval =  3.0
     Generated using "atomic" code by A. Dal Corso v.5.1
     Shape of augmentation charge: PSQ
     Using radial grid of 1135 points,  4 beta functions with: 
                l(1) =   0
                l(2) =   0
                l(3) =   1
                l(4) =   1
     Q(r) pseudized with 0 coefficients 


     atomic species   valence    mass     pseudopotential
        Al             3.00    26.98200     Al( 1.00)

     No symmetry found



   Cartesian axes

     site n.     atom                  positions (alat units)
         1           Al  tau(   1) = (  -0.0001235   0.0000359   0.0002572  )
         2           Al  tau(   2) = (   0.5003009   0.4992819   0.0002658  )
         3           Al  tau(   3) = (   0.4996490   0.0001153   0.5011170  )
         4           Al  tau(   4) = (  -0.0000756   0.5008267   0.5006943  )

     number of k points=    32  Marzari-Vanderbilt smearing, width (Ry)=  0.0200
                       cart. coord. in units 2pi/alat
        k(    1) = (   0.1250000   0.1250000   0.1250000), wk =   0.0625000
        k(    2) = (   0.1250000   0.1250000   0.3750000), wk =   0.0625000
        k(    3) = (   0.1250000   0.3750000   0.3750000), wk =   0.0625000
        k(    4) = (   0.3750000   0.3750000   0.3750000), wk =   0.0625000
        k(    5) = (  -0.1250000  -0.1250000   0.1250000), wk =   0.0625000
        k(    6) = (  -0.1250000   0.1250000  -0.1250000), wk =   0.0625000
        k(    7) = (   0.1250000  -0.1250000  -0.1250000), wk =   0.0625000
        k(    8) = (  -0.1250000  -0.1250000   0.3750000), wk =   0.0625000
        k(    9) = (  -0.1250000   0.1250000  -0.3750000), wk =   0.0625000
        k(   10) = (   0.1250000  -0.1250000  -0.3750000), wk =   0.0625000
        k(   11) = (   0.3750000  -0.1250000   0.1250000), wk =   0.0625000
        k(   12) = (  -0.3750000  -0.1250000  -0.1250000), wk =   0.0625000
        k(   13) = (   0.3750000   0.1250000  -0.1250000), wk =   0.0625000
        k(   14) = (  -0.3750000   0.1250000   0.1250000), wk =   0.0625000
        k(   15) = (  -0.1250000   0.3750000   0.1250000), wk =   0.0625000
        k(   16) = (  -0.1250000  -0.3750000  -0.1250000), wk =   0.0625000
        k(   17) = (   0.1250000   0.3750000  -0.1250000), wk =   0.0625000
        k(   18) = (   0.1250000  -0.3750000   0.1250000), wk =   0.0625000
        k(   19) = (  -0.1250000  -0.3750000   0.3750000), wk =   0.0625000
        k(   20) = (  -0.1250000   0.3750000  -0.3750000), wk =   0.0625000
        k(   21) = (   0.1250000  -0.3750000  -0.3750000), wk =   0.0625000
        k(   22) = (   0.3750000   0.1250000  -0.3750000), wk =   0.0625000
        k(   23) = (  -0.3750000  -0.1250000  -0.3750000), wk =   0.0625000
        k(   24) = (   0.3750000  -0.1250000   0.3750000), wk =   0.0625000
        k(   25) = (  -0.3750000   0.1250000   0.3750000), wk =   0.0625000
        k(   26) = (   0.3750000  -0.3750000   0.1250000), wk =   0.0625000
        k(   27) = (  -0.3750000  -0.3750000  -0.1250000), wk =   0.0625000
        k(   28) = (   0.3750000   0.3750000  -0.1250000), wk =   0.0625000
        k(   29) = (  -0.3750000   0.3750000   0.1250000), wk =   0.0625000
        k(   30) = (  -0.3750000  -0.3750000   0.3750000), wk =   0.0625000
        k(   31) = (  -0.3750000   0.3750000  -0.3750000), wk =   0.0625000
        k(   32) = (   0.3750000  -0.3750000  -0.3750000), wk =   0.0625000

     Dense  grid:     1419 G-vectors     FFT dimensions: (  15,  15,  15)

     Estimated max dynamical RAM per process >       0.37 MB

     Estimated total dynamical RAM >       7.41 MB

     Initial potential from superposition of free atoms

     starting charge   11.99084, renormalised to   12.00000
     Starting wfcs are   16 randomized atomic wfcs
     Checking if some PAW data can be deallocated... 

     total cpu time spent up to now is        0.6 secs

     Self-consistent Calculation

     iteration #  1     ecut=    35.00 Ry     beta= 0.10
     Davidson diagonalization with overlap
     ethr =  1.00E-02,  avg # of iterations =  4.6

     total cpu time spent up to now is        0.9 secs

     total energy              =    -141.64776288 Ry
     Harris-Foulkes estimate   =    -141.80230732 Ry
     estimated scf accuracy    <       0.18116124 Ry

     iteration #  2     ecut=    35.00 Ry     beta= 0.10
     Davidson diagonalization with overlap
     ethr =  1.51E-03,  avg # of iterations =  1.0

     total cpu time spent up to now is        0.9 secs

     total energy              =    -141.15671348 Ry
     Harris-Foulkes estimate   =    -141.65112383 Ry
     estimated scf accuracy    <       0.15195894 Ry

     iteration #  3     ecut=    35.00 Ry     beta= 0.10
     Davidson diagonalization with overlap
     ethr =  1.27E-03,  avg # of iterations =  2.0

     total cpu time spent up to now is        1.1 secs

     total energy              =    -141.23433053 Ry
     Harris-Foulkes estimate   =    -141.24407867 Ry
     estimated scf accuracy    <       0.01484441 Ry

     iteration #  4     ecut=    35.00 Ry     beta= 0.10
     Davidson diagonalization with overlap
     ethr =  1.24E-04,  avg # of iterations =  1.0

     total cpu time spent up to now is        1.1 secs

     total energy              =    -141.23715745 Ry
     Harris-Foulkes estimate   =    -141.23484352 Ry
     estimated scf accuracy    <       0.01155196 Ry

     iteration #  5     ecut=    35.00 Ry     beta= 0.10
     Davidson diagonalization with overlap
     ethr =  9.63E-05,  avg # of iterations =  1.5

     total cpu time spent up to now is        1.2 secs

     total energy              =    -141.23910233 Ry
     Harris-Foulkes estimate   =    -141.23830594 Ry
     estimated scf accuracy    <       0.00053270 Ry

     iteration #  6     ecut=    35.00 Ry     beta= 0.10
     Davidson diagonalization with overlap
     ethr =  4.44E-06,  avg # of iterations =  2.4

     total cpu time spent up to now is        1.3 secs

     total energy              =    -141.23928863 Ry
     Harris-Foulkes estimate   =    -141.23926822 Ry
     estimated scf accuracy    <       0.00010813 Ry

     iteration #  7     ecut=    35.00 Ry     beta= 0.10
     Davidson diagonalization with overlap
     ethr =  9.01E-07,  avg # of iterations =  1.2

     total cpu time spent up to now is        1.4 secs

     total energy              =    -141.23840438 Ry
     Harris-Foulkes estimate   =    -141.23929074 Ry
     estimated scf accuracy    <       0.00008920 Ry

     iteration #  8     ecut=    35.00 Ry     beta= 0.10
     Davidson diagonalization with overlap
     ethr =  7.43E-07,  avg # of iterations =  2.6

     total cpu time spent up to now is        1.5 secs

     total energy              =    -141.23851687 Ry
     Harris-Foulkes estimate   =    -141.23846954 Ry
     estimated scf accuracy    <       0.00000746 Ry

     iteration #  9     ecut=    35.00 Ry     beta= 0.10
     Davidson diagonalization with overlap
     ethr =  6.21E-08,  avg # of iterations =  2.0

     total cpu time spent up to now is        1.6 secs

     total energy              =    -141.23842383 Ry
     Harris-Foulkes estimate   =    -141.23851829 Ry
     estimated scf accuracy    <       0.00000479 Ry

     iteration # 10     ecut=    35.00 Ry     beta= 0.10
     Davidson diagonalization with overlap
     ethr =  4.00E-08,  avg # of iterations =  3.0

     total cpu time spent up to now is        1.8 secs

     End of self-consistent calculation

          k = 0.1250 0.1250 0.1250 (   233 PWs)   bands (ev):

    30.9168  41.4414  41.4592  41.4792  52.4415  52.4618  52.4820  54.9362
    54.9460  54.9561

          k = 0.1250 0.1250 0.3750 (   228 PWs)   bands (ev):

    34.4094  39.0180  43.9485  43.9674  51.8228  51.8401  54.8887  54.8974
    55.7123  61.5403

          k = 0.1250 0.3750 0.3750 (   231 PWs)   bands (ev):

    37.4252  41.6607  41.6977  44.5527  50.4994  52.9180  52.9671  57.0705
    57.5849  60.7519

          k = 0.3750 0.3750 0.3750 (   244 PWs)   bands (ev):

    39.8908  43.9797  44.0171  44.0554  47.7790  47.8204  47.8620  51.6552
    66.9863  66.9908

          k =-0.1250-0.1250 0.1250 (   233 PWs)   bands (ev):

    30.9168  41.4452  41.4595  41.4751  52.4457  52.4618  52.4777  54.9382
    54.9461  54.9540

          k =-0.1250 0.1250-0.1250 (   233 PWs)   bands (ev):

    30.9168  41.4486  41.4604  41.4708  52.4499  52.4617  52.4736  54.9403
    54.9461  54.9520

          k = 0.1250-0.1250-0.1250 (   233 PWs)   bands (ev):

    30.9168  41.4468  41.4598  41.4731  52.4477  52.4619  52.4758  54.9392
    54.9461  54.9530

          k =-0.1250-0.1250 0.3750 (   228 PWs)   bands (ev):

    34.4094  39.0180  43.9485  43.9674  51.8228  51.8401  54.8887  54.8974
    55.7120  61.5405

          k =-0.1250 0.1250-0.3750 (   228 PWs)   bands (ev):

    34.4094  39.0180  43.9536  43.9623  51.8274  51.8354  54.8911  54.8951
    55.7121  61.5403

          k = 0.1250-0.1250-0.3750 (   228 PWs)   bands (ev):

    34.4094  39.0180  43.9536  43.9623  51.8274  51.8353  54.8910  54.8951
    55.7123  61.5403

          k = 0.3750-0.1250 0.1250 (   228 PWs)   bands (ev):

    34.4095  39.0179  43.9536  43.9624  51.8272  51.8352  54.8912  54.8953
    55.7122  61.5403

          k =-0.3750-0.1250-0.1250 (   228 PWs)   bands (ev):

    34.4095  39.0179  43.9499  43.9660  51.8242  51.8388  54.8890  54.8964
    55.7129  61.5404

          k = 0.3750 0.1250-0.1250 (   228 PWs)   bands (ev):

    34.4095  39.0179  43.9536  43.9624  51.8272  51.8352  54.8912  54.8953
    55.7123  61.5411

          k =-0.3750 0.1250 0.1250 (   228 PWs)   bands (ev):

    34.4095  39.0179  43.9499  43.9660  51.8242  51.8389  54.8891  54.8965
    55.7125  61.5404

          k =-0.1250 0.3750 0.1250 (   228 PWs)   bands (ev):

    34.4095  39.0178  43.9569  43.9593  51.8303  51.8326  54.8924  54.8935
    55.7122  61.5405

          k =-0.1250-0.3750-0.1250 (   228 PWs)   bands (ev):

    34.4095  39.0178  43.9534  43.9629  51.8270  51.8356  54.8909  54.8952
    55.7123  61.5405

          k = 0.1250 0.3750-0.1250 (   228 PWs)   bands (ev):

    34.4095  39.0178  43.9569  43.9594  51.8303  51.8325  54.8922  54.8934
    55.7125  61.5404

          k = 0.1250-0.3750 0.1250 (   228 PWs)   bands (ev):

    34.4095  39.0178  43.9534  43.9628  51.8271  51.8357  54.8908  54.8952
    55.7122  61.5405

          k =-0.1250-0.3750 0.3750 (   231 PWs)   bands (ev):

    37.4252  41.6692  41.6894  44.5525  50.4996  52.9290  52.9559  57.0698
    57.5859  60.7507

          k =-0.1250 0.3750-0.3750 (   231 PWs)   bands (ev):

    37.4251  41.6692  41.6894  44.5526  50.4995  52.9290  52.9558  57.0694
    57.5864  60.7517

          k = 0.1250-0.3750-0.3750 (   231 PWs)   bands (ev):

    37.4252  41.6608  41.6977  44.5527  50.4994  52.9180  52.9671  57.0701
    57.5852  60.7482

          k = 0.3750 0.1250-0.3750 (   231 PWs)   bands (ev):

    37.4252  41.6764  41.6820  44.5526  50.4994  52.9389  52.9463  57.0705
    57.5852  60.7537

          k =-0.3750-0.1250-0.3750 (   231 PWs)   bands (ev):

    37.4252  41.6684  41.6901  44.5525  50.4997  52.9282  52.9571  57.0707
    57.5847  60.7532

          k = 0.3750-0.1250 0.3750 (   231 PWs)   bands (ev):

    37.4252  41.6684  41.6901  44.5525  50.4995  52.9281  52.9569  57.0709
    57.5849  60.7518

          k =-0.3750 0.1250 0.3750 (   231 PWs)   bands (ev):

    37.4252  41.6764  41.6820  44.5526  50.4995  52.9389  52.9464  57.0701
    57.5852  60.7533

          k = 0.3750-0.3750 0.1250 (   231 PWs)   bands (ev):

    37.4252  41.6693  41.6892  44.5526  50.4992  52.9292  52.9557  57.0707
    57.5850  60.7526

          k =-0.3750-0.3750-0.1250 (   231 PWs)   bands (ev):

    37.4252  41.6576  41.7009  44.5525  50.4996  52.9136  52.9714  57.0686
    57.5869  60.7487

          k = 0.3750 0.3750-0.1250 (   231 PWs)   bands (ev):

    37.4252  41.6576  41.7010  44.5526  50.4994  52.9135  52.9713  57.0708
    57.5848  60.7496

          k =-0.3750 0.3750 0.1250 (   231 PWs)   bands (ev):

    37.4252  41.6693  41.6891  44.5526  50.4996  52.9293  52.9558  57.0660
    57.5895  60.7523

          k =-0.3750-0.3750 0.3750 (   244 PWs)   bands (ev):

    39.8908  43.9875  44.0173  44.0473  47.7876  47.8204  47.8533  51.6553
    66.9864  66.9911

          k =-0.3750 0.3750-0.3750 (   244 PWs)   bands (ev):

    39.8907  43.9951  44.0175  44.0394  47.7962  47.8204  47.8448  51.6553
    66.9871  66.9902

          k = 0.3750-0.3750-0.3750 (   244 PWs)   bands (ev):

    39.8907  43.9911  44.0173  44.0436  47.7917  47.8205  47.8493  51.6552
    66.9872  66.9893

     the Fermi energy is    52.6732 ev

!    total energy              =    -141.23843214 Ry
     Harris-Foulkes estimate   =    -141.23843235 Ry
     estimated scf accuracy    <       0.00000070 Ry

     total all-electron energy =     -1925.809560 Ry

     The total energy is the sum of the following terms:

     one-electron contribution =      58.67902315 Ry
     hartree contribution      =       0.21171705 Ry
     xc contribution           =     -17.28495314 Ry
     ewald contribution        =     -40.85514764 Ry
     one-center paw contrib.   =    -141.98842683 Ry
     smearing contrib. (-TS)   =      -0.00064473 Ry

     convergence has been achieved in  10 iterations

     Forces acting on atoms (cartesian axes, Ry/au):

     atom    1 type  1   force =     0.00202615   -0.00041252    0.01642766
     atom    2 type  1   force =    -0.00327345    0.00369567    0.01639146
     atom    3 type  1   force =    -0.00057222   -0.00065618   -0.01731939
     atom    4 type  1   force =     0.00181952   -0.00262696   -0.01549973

     Total force =     0.033442     Total SCF correction =     0.000020


     Computing stress (Cartesian axis) and pressure

          total   stress  (Ry/bohr**3)                   (kbar)     P=59625.30
   0.40533005   0.00000112   0.00000074      59626.10      0.16      0.11
   0.00000112   0.40531885  -0.00000114          0.16  59624.45     -0.17
   0.00000074  -0.00000114   0.40532500          0.11     -0.17  59625.36


     Writing output data file fe_scf_fcc_2.save/
 
     init_run     :      0.08s CPU      0.12s WALL (       1 calls)
     electrons    :      0.99s CPU      1.12s WALL (       1 calls)
     forces       :      0.01s CPU      0.01s WALL (       1 calls)
     stress       :      0.02s CPU      0.02s WALL (       1 calls)

     Called by init_run:
     wfcinit      :      0.04s CPU      0.04s WALL (       1 calls)
     potinit      :      0.01s CPU      0.02s WALL (       1 calls)
     hinit0       :      0.03s CPU      0.06s WALL (       1 calls)

     Called by electrons:
     c_bands      :      0.73s CPU      0.83s WALL (      10 calls)
     sum_band     :      0.12s CPU      0.13s WALL (      10 calls)
     v_of_rho     :      0.00s CPU      0.00s WALL (      11 calls)
     newd         :      0.00s CPU      0.00s WALL (      11 calls)
     PAW_pot      :      0.13s CPU      0.14s WALL (      11 calls)
     mix_rho      :      0.00s CPU      0.00s WALL (      10 calls)

     Called by c_bands:
     init_us_2    :      0.01s CPU      0.01s WALL (     736 calls)
     cegterg      :      0.71s CPU      0.81s WALL (     320 calls)

     Called by sum_band:
     sum_band:bec :      0.00s CPU      0.00s WALL (     320 calls)
     addusdens    :      0.00s CPU      0.00s WALL (      10 calls)

     Called by *egterg:
     h_psi        :      0.48s CPU      0.55s WALL (    1031 calls)
     s_psi        :      0.01s CPU      0.01s WALL (    1031 calls)
     g_psi        :      0.00s CPU      0.00s WALL (     679 calls)
     cdiaghg      :      0.17s CPU      0.19s WALL (     999 calls)

     Called by h_psi:
     h_psi:pot    :      0.48s CPU      0.54s WALL (    1031 calls)
     h_psi:calbec :      0.05s CPU      0.05s WALL (    1031 calls)
     vloc_psi     :      0.42s CPU      0.48s WALL (    1031 calls)
     add_vuspsi   :      0.01s CPU      0.01s WALL (    1031 calls)

     General routines
     calbec       :      0.07s CPU      0.08s WALL (    1511 calls)
     fft          :      0.04s CPU      0.07s WALL (     147 calls)
     ffts         :      0.00s CPU      0.00s WALL (      10 calls)
     fftw         :      0.48s CPU      0.54s WALL (   20520 calls)
 
     Parallel routines
     fft_scatt_xy :      0.03s CPU      0.03s WALL (   20677 calls)
     fft_scatt_yz :      0.40s CPU      0.46s WALL (   20677 calls)
 
     PWSCF        :     1.67s CPU         2.17s WALL

 
   This run was terminated on:  19: 3:30  22Oct2019            

=------------------------------------------------------------------------------=
   JOB DONE.
=------------------------------------------------------------------------------=
