
     Program PWSCF v.6.3 starts on 19Oct2019 at 23:18:48 

     This program is part of the open-source Quantum ESPRESSO suite
     for quantum simulation of materials; please cite
         "P. Giannozzi et al., J. Phys.:Condens. Matter 21 395502 (2009);
         "P. Giannozzi et al., J. Phys.:Condens. Matter 29 465901 (2017);
          URL http://www.quantum-espresso.org", 
     in publications or presentations arising from this work. More details at
     http://www.quantum-espresso.org/quote

     Parallel version (MPI), running on     1 processors

     MPI processes distributed on     1 nodes
     Reading input from /cloud/Code/python/py_pwscf_converge/src/example/wd/runpwscf/file_10015.in
Warning: card &IONS ignored
Warning: card ION_DYNAMICS = 'BFGS', ignored
Warning: card / ignored
Warning: card &CELL ignored
Warning: card CELL_DYNAMICS = 'BFGS', ignored
Warning: card CELL_FACTOR = 2.0, ignored
Warning: card PRESS = 0.0, ignored
Warning: card / ignored

     Current dimensions of program PWSCF are:
     Max number of different atomic species (ntypx) = 10
     Max number of k-points (npk) =  40000
     Max angular momentum in pseudopotentials (lmaxx) =  3
               file Al.pbe-nl-kjpaw_psl.1.0.0.UPF: wavefunction(s)  3S 3P renormalized

     Subspace diagonalization in iterative solution of the eigenvalue problem:
     a serial algorithm will be used


     G-vector sticks info
     --------------------
     sticks:   dense  smooth     PW     G-vecs:    dense   smooth      PW
     Sum         213     149     57                 2301     1419     305



     bravais-lattice index     =            0
     lattice parameter (alat)  =       4.0400  a.u.
     unit-cell volume          =      65.9393 (a.u.)^3
     number of atoms/cell      =            4
     number of atomic types    =            1
     number of electrons       =        12.00
     number of Kohn-Sham states=           10
     kinetic-energy cutoff     =      30.0000  Ry
     charge density cutoff     =     160.0000  Ry
     convergence threshold     =      1.0E-06
     mixing beta               =       0.1000
     number of iterations used =           10  TF        mixing
     Exchange-correlation      = SLA PW PBX PBC ( 1  4  3  4 0 0)

     celldm(1)=   4.040000  celldm(2)=   0.000000  celldm(3)=   0.000000
     celldm(4)=   0.000000  celldm(5)=   0.000000  celldm(6)=   0.000000

     crystal axes: (cart. coord. in units of alat)
               a(1) = (   1.000000   0.000000   0.000000 )  
               a(2) = (   0.000000   1.000000   0.000000 )  
               a(3) = (   0.000000   0.000000   1.000000 )  

     reciprocal axes: (cart. coord. in units 2 pi/alat)
               b(1) = (  1.000000  0.000000  0.000000 )  
               b(2) = (  0.000000  1.000000  0.000000 )  
               b(3) = (  0.000000  0.000000  1.000000 )  


     PseudoPot. # 1 for Al read from file:
     /opt/pp/Al.pbe-nl-kjpaw_psl.1.0.0.UPF
     MD5 check sum: 1b67f78b73fe58c7924490f171ce8a1e
     Pseudo is Projector augmented-wave + core cor, Zval =  3.0
     Generated using "atomic" code by A. Dal Corso v.6.3
     Shape of augmentation charge: PSQ
     Using radial grid of 1135 points,  4 beta functions with: 
                l(1) =   0
                l(2) =   0
                l(3) =   1
                l(4) =   1
     Q(r) pseudized with 0 coefficients 


     atomic species   valence    mass     pseudopotential
        Al             3.00    26.98200     Al( 1.00)

     No symmetry found



   Cartesian axes

     site n.     atom                  positions (alat units)
         1           Al  tau(   1) = (  -0.0001235   0.0000359   0.0002572  )
         2           Al  tau(   2) = (   0.5003009   0.4992819   0.0002658  )
         3           Al  tau(   3) = (   0.4996490   0.0001153   0.5011170  )
         4           Al  tau(   4) = (  -0.0000756   0.5008267   0.5006943  )

     number of k points=    32  Marzari-Vanderbilt smearing, width (Ry)=  0.0200
                       cart. coord. in units 2pi/alat
        k(    1) = (   0.1250000   0.1250000   0.1250000), wk =   0.0625000
        k(    2) = (   0.1250000   0.1250000   0.3750000), wk =   0.0625000
        k(    3) = (   0.1250000   0.3750000   0.3750000), wk =   0.0625000
        k(    4) = (   0.3750000   0.3750000   0.3750000), wk =   0.0625000
        k(    5) = (  -0.1250000  -0.1250000   0.1250000), wk =   0.0625000
        k(    6) = (  -0.1250000   0.1250000  -0.1250000), wk =   0.0625000
        k(    7) = (   0.1250000  -0.1250000  -0.1250000), wk =   0.0625000
        k(    8) = (  -0.1250000  -0.1250000   0.3750000), wk =   0.0625000
        k(    9) = (  -0.1250000   0.1250000  -0.3750000), wk =   0.0625000
        k(   10) = (   0.1250000  -0.1250000  -0.3750000), wk =   0.0625000
        k(   11) = (   0.3750000  -0.1250000   0.1250000), wk =   0.0625000
        k(   12) = (  -0.3750000  -0.1250000  -0.1250000), wk =   0.0625000
        k(   13) = (   0.3750000   0.1250000  -0.1250000), wk =   0.0625000
        k(   14) = (  -0.3750000   0.1250000   0.1250000), wk =   0.0625000
        k(   15) = (  -0.1250000   0.3750000   0.1250000), wk =   0.0625000
        k(   16) = (  -0.1250000  -0.3750000  -0.1250000), wk =   0.0625000
        k(   17) = (   0.1250000   0.3750000  -0.1250000), wk =   0.0625000
        k(   18) = (   0.1250000  -0.3750000   0.1250000), wk =   0.0625000
        k(   19) = (  -0.1250000  -0.3750000   0.3750000), wk =   0.0625000
        k(   20) = (  -0.1250000   0.3750000  -0.3750000), wk =   0.0625000
        k(   21) = (   0.1250000  -0.3750000  -0.3750000), wk =   0.0625000
        k(   22) = (   0.3750000   0.1250000  -0.3750000), wk =   0.0625000
        k(   23) = (  -0.3750000  -0.1250000  -0.3750000), wk =   0.0625000
        k(   24) = (   0.3750000  -0.1250000   0.3750000), wk =   0.0625000
        k(   25) = (  -0.3750000   0.1250000   0.3750000), wk =   0.0625000
        k(   26) = (   0.3750000  -0.3750000   0.1250000), wk =   0.0625000
        k(   27) = (  -0.3750000  -0.3750000  -0.1250000), wk =   0.0625000
        k(   28) = (   0.3750000   0.3750000  -0.1250000), wk =   0.0625000
        k(   29) = (  -0.3750000   0.3750000   0.1250000), wk =   0.0625000
        k(   30) = (  -0.3750000  -0.3750000   0.3750000), wk =   0.0625000
        k(   31) = (  -0.3750000   0.3750000  -0.3750000), wk =   0.0625000
        k(   32) = (   0.3750000  -0.3750000  -0.3750000), wk =   0.0625000

     Dense  grid:     2301 G-vectors     FFT dimensions: (  18,  18,  18)

     Smooth grid:     1419 G-vectors     FFT dimensions: (  15,  15,  15)

     Estimated max dynamical RAM per process >       4.57 MB

     Initial potential from superposition of free atoms

     starting charge   11.99084, renormalised to   12.00000
     Starting wfcs are   16 randomized atomic wfcs
     Checking if some PAW data can be deallocated... 

     total cpu time spent up to now is        0.9 secs

     Self-consistent Calculation

     iteration #  1     ecut=    30.00 Ry     beta= 0.10
     Davidson diagonalization with overlap
     ethr =  1.00E-02,  avg # of iterations =  4.6

     total cpu time spent up to now is        1.4 secs

     total energy              =    -141.63481058 Ry
     Harris-Foulkes estimate   =    -141.78945810 Ry
     estimated scf accuracy    <       0.18077171 Ry

     iteration #  2     ecut=    30.00 Ry     beta= 0.10
     Davidson diagonalization with overlap
     ethr =  1.51E-03,  avg # of iterations =  1.0

     total cpu time spent up to now is        1.7 secs

     total energy              =    -141.14505314 Ry
     Harris-Foulkes estimate   =    -141.63837483 Ry
     estimated scf accuracy    <       0.15263249 Ry

     iteration #  3     ecut=    30.00 Ry     beta= 0.10
     Davidson diagonalization with overlap
     ethr =  1.27E-03,  avg # of iterations =  2.0

     total cpu time spent up to now is        2.1 secs

     total energy              =    -141.22484544 Ry
     Harris-Foulkes estimate   =    -141.24346658 Ry
     estimated scf accuracy    <       0.01641260 Ry

     iteration #  4     ecut=    30.00 Ry     beta= 0.10
     Davidson diagonalization with overlap
     ethr =  1.37E-04,  avg # of iterations =  1.1

     total cpu time spent up to now is        2.4 secs

     total energy              =    -141.22404595 Ry
     Harris-Foulkes estimate   =    -141.22549183 Ry
     estimated scf accuracy    <       0.01243627 Ry

     iteration #  5     ecut=    30.00 Ry     beta= 0.10
     Davidson diagonalization with overlap
     ethr =  1.04E-04,  avg # of iterations =  1.0

     total cpu time spent up to now is        2.7 secs

     total energy              =    -141.22645717 Ry
     Harris-Foulkes estimate   =    -141.22525408 Ry
     estimated scf accuracy    <       0.00040143 Ry

     iteration #  6     ecut=    30.00 Ry     beta= 0.10
     Davidson diagonalization with overlap
     ethr =  3.35E-06,  avg # of iterations =  2.9

     total cpu time spent up to now is        3.1 secs

     total energy              =    -141.22628049 Ry
     Harris-Foulkes estimate   =    -141.22665068 Ry
     estimated scf accuracy    <       0.00004803 Ry

     iteration #  7     ecut=    30.00 Ry     beta= 0.10
     Davidson diagonalization with overlap
     ethr =  4.00E-07,  avg # of iterations =  1.0

     total cpu time spent up to now is        3.5 secs

     total energy              =    -141.22514091 Ry
     Harris-Foulkes estimate   =    -141.22628300 Ry
     estimated scf accuracy    <       0.00004259 Ry

     iteration #  8     ecut=    30.00 Ry     beta= 0.10
     Davidson diagonalization with overlap
     ethr =  3.55E-07,  avg # of iterations =  3.0

     total cpu time spent up to now is        3.8 secs

     total energy              =    -141.22526084 Ry
     Harris-Foulkes estimate   =    -141.22521555 Ry
     estimated scf accuracy    <       0.00000620 Ry

     iteration #  9     ecut=    30.00 Ry     beta= 0.10
     Davidson diagonalization with overlap
     ethr =  5.17E-08,  avg # of iterations =  2.0

     total cpu time spent up to now is        4.2 secs

     total energy              =    -141.22515089 Ry
     Harris-Foulkes estimate   =    -141.22526190 Ry
     estimated scf accuracy    <       0.00000963 Ry

     iteration # 10     ecut=    30.00 Ry     beta= 0.10
     Davidson diagonalization with overlap
     ethr =  5.17E-08,  avg # of iterations =  3.0

     total cpu time spent up to now is        4.6 secs

     End of self-consistent calculation

          k = 0.1250 0.1250 0.1250 (   181 PWs)   bands (ev):

    30.9190  41.4630  41.4821  41.5009  52.4648  52.4852  52.5053  54.9520
    54.9619  54.9719

          k = 0.1250 0.1250 0.3750 (   185 PWs)   bands (ev):

    34.4118  39.0176  43.9679  43.9869  51.8383  51.8556  54.9055  54.9142
    55.7190  61.5449

          k = 0.1250 0.3750 0.3750 (   181 PWs)   bands (ev):

    37.4266  41.6710  41.7079  44.5691  50.5193  52.9456  52.9948  57.0903
    57.6079  60.7735

          k = 0.3750 0.3750 0.3750 (   178 PWs)   bands (ev):

    39.8918  43.9974  44.0353  44.0729  47.8100  47.8514  47.8927  51.6821
    67.0141  67.0168

          k =-0.1250-0.1250 0.1250 (   181 PWs)   bands (ev):

    30.9190  41.4670  41.4821  41.4969  52.4691  52.4850  52.5011  54.9541
    54.9619  54.9698

          k =-0.1250 0.1250-0.1250 (   181 PWs)   bands (ev):

    30.9190  41.4709  41.4821  41.4930  52.4732  52.4852  52.4969  54.9561
    54.9620  54.9678

          k = 0.1250-0.1250-0.1250 (   181 PWs)   bands (ev):

    30.9190  41.4688  41.4821  41.4951  52.4710  52.4851  52.4991  54.9550
    54.9619  54.9689

          k =-0.1250-0.1250 0.3750 (   185 PWs)   bands (ev):

    34.4118  39.0176  43.9679  43.9868  51.8384  51.8557  54.9055  54.9142
    55.7187  61.5451

          k =-0.1250 0.1250-0.3750 (   185 PWs)   bands (ev):

    34.4118  39.0176  43.9730  43.9817  51.8430  51.8509  54.9079  54.9119
    55.7188  61.5449

          k = 0.1250-0.1250-0.3750 (   185 PWs)   bands (ev):

    34.4118  39.0176  43.9731  43.9818  51.8430  51.8509  54.9079  54.9119
    55.7190  61.5446

          k = 0.3750-0.1250 0.1250 (   185 PWs)   bands (ev):

    34.4118  39.0175  43.9730  43.9818  51.8428  51.8508  54.9080  54.9121
    55.7190  61.5452

          k =-0.3750-0.1250-0.1250 (   185 PWs)   bands (ev):

    34.4118  39.0174  43.9694  43.9855  51.8397  51.8544  54.9058  54.9132
    55.7196  61.5453

          k = 0.3750 0.1250-0.1250 (   185 PWs)   bands (ev):

    34.4118  39.0174  43.9730  43.9818  51.8428  51.8508  54.9080  54.9121
    55.7190  61.5451

          k =-0.3750 0.1250 0.1250 (   185 PWs)   bands (ev):

    34.4118  39.0175  43.9693  43.9854  51.8398  51.8545  54.9059  54.9133
    55.7192  61.5451

          k =-0.1250 0.3750 0.1250 (   185 PWs)   bands (ev):

    34.4118  39.0174  43.9763  43.9788  51.8459  51.8481  54.9092  54.9103
    55.7189  61.5451

          k =-0.1250-0.3750-0.1250 (   185 PWs)   bands (ev):

    34.4118  39.0174  43.9728  43.9823  51.8426  51.8512  54.9077  54.9120
    55.7190  61.5452

          k = 0.1250 0.3750-0.1250 (   185 PWs)   bands (ev):

    34.4118  39.0174  43.9764  43.9788  51.8459  51.8481  54.9091  54.9103
    55.7193  61.5451

          k = 0.1250-0.3750 0.1250 (   185 PWs)   bands (ev):

    34.4118  39.0174  43.9728  43.9823  51.8426  51.8513  54.9077  54.9120
    55.7189  61.5451

          k =-0.1250-0.3750 0.3750 (   181 PWs)   bands (ev):

    37.4265  41.6794  41.6996  44.5689  50.5194  52.9567  52.9836  57.0897
    57.6088  60.7742

          k =-0.1250 0.3750-0.3750 (   181 PWs)   bands (ev):

    37.4265  41.6794  41.6996  44.5689  50.5194  52.9566  52.9835  57.0893
    57.6093  60.7733

          k = 0.1250-0.3750-0.3750 (   181 PWs)   bands (ev):

    37.4265  41.6710  41.7079  44.5691  50.5193  52.9456  52.9948  57.0899
    57.6081  60.7757

          k = 0.3750 0.1250-0.3750 (   181 PWs)   bands (ev):

    37.4265  41.6866  41.6922  44.5690  50.5192  52.9665  52.9740  57.0904
    57.6081  60.7760

          k =-0.3750-0.1250-0.3750 (   181 PWs)   bands (ev):

    37.4265  41.6786  41.7003  44.5688  50.5195  52.9558  52.9848  57.0906
    57.6077  60.7725

          k = 0.3750-0.1250 0.3750 (   181 PWs)   bands (ev):

    37.4265  41.6786  41.7003  44.5689  50.5193  52.9557  52.9847  57.0907
    57.6078  60.7731

          k =-0.3750 0.1250 0.3750 (   181 PWs)   bands (ev):

    37.4265  41.6867  41.6922  44.5689  50.5194  52.9666  52.9741  57.0900
    57.6081  60.7752

          k = 0.3750-0.3750 0.1250 (   181 PWs)   bands (ev):

    37.4266  41.6795  41.6994  44.5690  50.5191  52.9568  52.9834  57.0906
    57.6079  60.7735

          k =-0.3750-0.3750-0.1250 (   181 PWs)   bands (ev):

    37.4266  41.6678  41.7111  44.5689  50.5195  52.9412  52.9991  57.0885
    57.6098  60.7703

          k = 0.3750 0.3750-0.1250 (   181 PWs)   bands (ev):

    37.4266  41.6678  41.7112  44.5689  50.5193  52.9411  52.9991  57.0906
    57.6078  60.7703

          k =-0.3750 0.3750 0.1250 (   181 PWs)   bands (ev):

    37.4266  41.6795  41.6994  44.5690  50.5194  52.9569  52.9836  57.0860
    57.6124  60.7748

          k =-0.3750-0.3750 0.3750 (   178 PWs)   bands (ev):

    39.8918  44.0053  44.0353  44.0649  47.8187  47.8513  47.8841  51.6823
    67.0127  67.0177

          k =-0.3750 0.3750-0.3750 (   178 PWs)   bands (ev):

    39.8917  44.0130  44.0352  44.0572  47.8271  47.8514  47.8755  51.6823
    67.0136  67.0170

          k = 0.3750-0.3750-0.3750 (   178 PWs)   bands (ev):

    39.8917  44.0089  44.0351  44.0613  47.8227  47.8514  47.8802  51.6822
    67.0144  67.0158

     the Fermi energy is    52.6979 ev

!    total energy              =    -141.22516132 Ry
     Harris-Foulkes estimate   =    -141.22516156 Ry
     estimated scf accuracy    <       0.00000097 Ry

     total all-electron energy =     -1925.796283 Ry

     The total energy is the sum of the following terms:

     one-electron contribution =      58.69430519 Ry
     hartree contribution      =       0.21138591 Ry
     xc contribution           =     -17.28412423 Ry
     ewald contribution        =     -40.85514931 Ry
     one-center paw contrib.   =    -141.99098541 Ry
     smearing contrib. (-TS)   =      -0.00059347 Ry

     convergence has been achieved in  10 iterations

     Forces acting on atoms (cartesian axes, Ry/au):

     atom    1 type  1   force =     0.00202074   -0.00043959    0.01658311
     atom    2 type  1   force =    -0.00334384    0.00387416    0.01654765
     atom    3 type  1   force =    -0.00049242   -0.00066163   -0.01752067
     atom    4 type  1   force =     0.00181551   -0.00277294   -0.01561009

     Total force =     0.033788     Total SCF correction =     0.000016


     Computing stress (Cartesian axis) and pressure

          total   stress  (Ry/bohr**3)                   (kbar)     P=59554.18
   0.40484666   0.00000114   0.00000090      59554.99      0.17      0.13
   0.00000114   0.40483554  -0.00000115          0.17  59553.35     -0.17
   0.00000090  -0.00000115   0.40484130          0.13     -0.17  59554.20


     Writing output data file fe_scf_fcc_2.save/

     init_run     :      0.48s CPU      0.50s WALL (       1 calls)
     electrons    :      3.46s CPU      3.65s WALL (       1 calls)
     forces       :      0.03s CPU      0.03s WALL (       1 calls)
     stress       :      0.07s CPU      0.07s WALL (       1 calls)

     Called by init_run:
     wfcinit      :      0.06s CPU      0.06s WALL (       1 calls)
     potinit      :      0.24s CPU      0.25s WALL (       1 calls)
     hinit0       :      0.18s CPU      0.18s WALL (       1 calls)

     Called by electrons:
     c_bands      :      0.90s CPU      0.94s WALL (      10 calls)
     sum_band     :      0.16s CPU      0.16s WALL (      10 calls)
     v_of_rho     :      0.05s CPU      0.05s WALL (      11 calls)
     newd         :      0.04s CPU      0.04s WALL (      11 calls)
     PAW_pot      :      2.56s CPU      2.70s WALL (      11 calls)
     mix_rho      :      0.00s CPU      0.01s WALL (      10 calls)

     Called by c_bands:
     init_us_2    :      0.03s CPU      0.05s WALL (     736 calls)
     cegterg      :      0.84s CPU      0.87s WALL (     320 calls)

     Called by sum_band:
     sum_band:bec :      0.00s CPU      0.00s WALL (     320 calls)
     addusdens    :      0.03s CPU      0.02s WALL (      10 calls)

     Called by *egterg:
     h_psi        :      0.51s CPU      0.58s WALL (    1042 calls)
     s_psi        :      0.04s CPU      0.04s WALL (    1042 calls)
     g_psi        :      0.01s CPU      0.01s WALL (     690 calls)
     cdiaghg      :      0.20s CPU      0.17s WALL (    1010 calls)

     Called by h_psi:
     h_psi:pot    :      0.51s CPU      0.58s WALL (    1042 calls)
     h_psi:calbec :      0.04s CPU      0.04s WALL (    1042 calls)
     vloc_psi     :      0.44s CPU      0.49s WALL (    1042 calls)
     add_vuspsi   :      0.03s CPU      0.04s WALL (    1042 calls)

     General routines
     calbec       :      0.08s CPU      0.06s WALL (    1522 calls)
     fft          :      0.02s CPU      0.03s WALL (     167 calls)
     ffts         :      0.00s CPU      0.00s WALL (      21 calls)
     fftw         :      0.43s CPU      0.47s WALL (   20788 calls)
     interpolate  :      0.00s CPU      0.00s WALL (      11 calls)

     Parallel routines

     PWSCF        :     4.46s CPU         4.69s WALL


   This run was terminated on:  23:18:53  19Oct2019            

=------------------------------------------------------------------------------=
   JOB DONE.
=------------------------------------------------------------------------------=
