
     Program PWSCF v.6.3 starts on 20Oct2019 at  2:49:38 

     This program is part of the open-source Quantum ESPRESSO suite
     for quantum simulation of materials; please cite
         "P. Giannozzi et al., J. Phys.:Condens. Matter 21 395502 (2009);
         "P. Giannozzi et al., J. Phys.:Condens. Matter 29 465901 (2017);
          URL http://www.quantum-espresso.org", 
     in publications or presentations arising from this work. More details at
     http://www.quantum-espresso.org/quote

     Parallel version (MPI), running on     1 processors

     MPI processes distributed on     1 nodes
     Reading input from /cloud/Code/python/py_pwscf_converge/src/example/wd/runpwscf/file_10102.in
Warning: card &IONS ignored
Warning: card ION_DYNAMICS = 'BFGS', ignored
Warning: card / ignored
Warning: card &CELL ignored
Warning: card CELL_DYNAMICS = 'BFGS', ignored
Warning: card CELL_FACTOR = 2.0, ignored
Warning: card PRESS = 0.0, ignored
Warning: card / ignored

     Current dimensions of program PWSCF are:
     Max number of different atomic species (ntypx) = 10
     Max number of k-points (npk) =  40000
     Max angular momentum in pseudopotentials (lmaxx) =  3
               file Al.pbe-nl-kjpaw_psl.1.0.0.UPF: wavefunction(s)  3S 3P renormalized

     Subspace diagonalization in iterative solution of the eigenvalue problem:
     a serial algorithm will be used


     G-vector sticks info
     --------------------
     sticks:   dense  smooth     PW     G-vecs:    dense   smooth      PW
     Sum         293     261     89                 3695     3119     587



     bravais-lattice index     =            0
     lattice parameter (alat)  =       4.0400  a.u.
     unit-cell volume          =      65.9393 (a.u.)^3
     number of atoms/cell      =            4
     number of atomic types    =            1
     number of electrons       =        12.00
     number of Kohn-Sham states=           10
     kinetic-energy cutoff     =      50.0000  Ry
     charge density cutoff     =     220.0000  Ry
     convergence threshold     =      1.0E-06
     mixing beta               =       0.1000
     number of iterations used =           10  TF        mixing
     Exchange-correlation      = SLA PW PBX PBC ( 1  4  3  4 0 0)

     celldm(1)=   4.040000  celldm(2)=   0.000000  celldm(3)=   0.000000
     celldm(4)=   0.000000  celldm(5)=   0.000000  celldm(6)=   0.000000

     crystal axes: (cart. coord. in units of alat)
               a(1) = (   1.000000   0.000000   0.000000 )  
               a(2) = (   0.000000   1.000000   0.000000 )  
               a(3) = (   0.000000   0.000000   1.000000 )  

     reciprocal axes: (cart. coord. in units 2 pi/alat)
               b(1) = (  1.000000  0.000000  0.000000 )  
               b(2) = (  0.000000  1.000000  0.000000 )  
               b(3) = (  0.000000  0.000000  1.000000 )  


     PseudoPot. # 1 for Al read from file:
     /opt/pp/Al.pbe-nl-kjpaw_psl.1.0.0.UPF
     MD5 check sum: 1b67f78b73fe58c7924490f171ce8a1e
     Pseudo is Projector augmented-wave + core cor, Zval =  3.0
     Generated using "atomic" code by A. Dal Corso v.6.3
     Shape of augmentation charge: PSQ
     Using radial grid of 1135 points,  4 beta functions with: 
                l(1) =   0
                l(2) =   0
                l(3) =   1
                l(4) =   1
     Q(r) pseudized with 0 coefficients 


     atomic species   valence    mass     pseudopotential
        Al             3.00    26.98200     Al( 1.00)

     No symmetry found



   Cartesian axes

     site n.     atom                  positions (alat units)
         1           Al  tau(   1) = (  -0.0001235   0.0000359   0.0002572  )
         2           Al  tau(   2) = (   0.5003009   0.4992819   0.0002658  )
         3           Al  tau(   3) = (   0.4996490   0.0001153   0.5011170  )
         4           Al  tau(   4) = (  -0.0000756   0.5008267   0.5006943  )

     number of k points=    32  Marzari-Vanderbilt smearing, width (Ry)=  0.0200
                       cart. coord. in units 2pi/alat
        k(    1) = (   0.1250000   0.1250000   0.1250000), wk =   0.0625000
        k(    2) = (   0.1250000   0.1250000   0.3750000), wk =   0.0625000
        k(    3) = (   0.1250000   0.3750000   0.3750000), wk =   0.0625000
        k(    4) = (   0.3750000   0.3750000   0.3750000), wk =   0.0625000
        k(    5) = (  -0.1250000  -0.1250000   0.1250000), wk =   0.0625000
        k(    6) = (  -0.1250000   0.1250000  -0.1250000), wk =   0.0625000
        k(    7) = (   0.1250000  -0.1250000  -0.1250000), wk =   0.0625000
        k(    8) = (  -0.1250000  -0.1250000   0.3750000), wk =   0.0625000
        k(    9) = (  -0.1250000   0.1250000  -0.3750000), wk =   0.0625000
        k(   10) = (   0.1250000  -0.1250000  -0.3750000), wk =   0.0625000
        k(   11) = (   0.3750000  -0.1250000   0.1250000), wk =   0.0625000
        k(   12) = (  -0.3750000  -0.1250000  -0.1250000), wk =   0.0625000
        k(   13) = (   0.3750000   0.1250000  -0.1250000), wk =   0.0625000
        k(   14) = (  -0.3750000   0.1250000   0.1250000), wk =   0.0625000
        k(   15) = (  -0.1250000   0.3750000   0.1250000), wk =   0.0625000
        k(   16) = (  -0.1250000  -0.3750000  -0.1250000), wk =   0.0625000
        k(   17) = (   0.1250000   0.3750000  -0.1250000), wk =   0.0625000
        k(   18) = (   0.1250000  -0.3750000   0.1250000), wk =   0.0625000
        k(   19) = (  -0.1250000  -0.3750000   0.3750000), wk =   0.0625000
        k(   20) = (  -0.1250000   0.3750000  -0.3750000), wk =   0.0625000
        k(   21) = (   0.1250000  -0.3750000  -0.3750000), wk =   0.0625000
        k(   22) = (   0.3750000   0.1250000  -0.3750000), wk =   0.0625000
        k(   23) = (  -0.3750000  -0.1250000  -0.3750000), wk =   0.0625000
        k(   24) = (   0.3750000  -0.1250000   0.3750000), wk =   0.0625000
        k(   25) = (  -0.3750000   0.1250000   0.3750000), wk =   0.0625000
        k(   26) = (   0.3750000  -0.3750000   0.1250000), wk =   0.0625000
        k(   27) = (  -0.3750000  -0.3750000  -0.1250000), wk =   0.0625000
        k(   28) = (   0.3750000   0.3750000  -0.1250000), wk =   0.0625000
        k(   29) = (  -0.3750000   0.3750000   0.1250000), wk =   0.0625000
        k(   30) = (  -0.3750000  -0.3750000   0.3750000), wk =   0.0625000
        k(   31) = (  -0.3750000   0.3750000  -0.3750000), wk =   0.0625000
        k(   32) = (   0.3750000  -0.3750000  -0.3750000), wk =   0.0625000

     Dense  grid:     3695 G-vectors     FFT dimensions: (  20,  20,  20)

     Smooth grid:     3119 G-vectors     FFT dimensions: (  20,  20,  20)

     Estimated max dynamical RAM per process >       7.72 MB

     Initial potential from superposition of free atoms

     starting charge   11.99084, renormalised to   12.00000
     Starting wfcs are   16 randomized atomic wfcs
     Checking if some PAW data can be deallocated... 

     total cpu time spent up to now is        1.1 secs

     Self-consistent Calculation

     iteration #  1     ecut=    50.00 Ry     beta= 0.10
     Davidson diagonalization with overlap
     ethr =  1.00E-02,  avg # of iterations =  4.9

     total cpu time spent up to now is        3.0 secs

     total energy              =    -141.65157155 Ry
     Harris-Foulkes estimate   =    -141.80578478 Ry
     estimated scf accuracy    <       0.18083263 Ry

     iteration #  2     ecut=    50.00 Ry     beta= 0.10
     Davidson diagonalization with overlap
     ethr =  1.51E-03,  avg # of iterations =  1.0

     total cpu time spent up to now is        4.4 secs

     total energy              =    -141.16260308 Ry
     Harris-Foulkes estimate   =    -141.65423724 Ry
     estimated scf accuracy    <       0.15222783 Ry

     iteration #  3     ecut=    50.00 Ry     beta= 0.10
     Davidson diagonalization with overlap
     ethr =  1.27E-03,  avg # of iterations =  2.0

     total cpu time spent up to now is        6.0 secs

     total energy              =    -141.24496225 Ry
     Harris-Foulkes estimate   =    -141.25948379 Ry
     estimated scf accuracy    <       0.01623033 Ry

     iteration #  4     ecut=    50.00 Ry     beta= 0.10
     Davidson diagonalization with overlap
     ethr =  1.35E-04,  avg # of iterations =  1.0

     total cpu time spent up to now is        7.5 secs

     total energy              =    -141.24049648 Ry
     Harris-Foulkes estimate   =    -141.24542622 Ry
     estimated scf accuracy    <       0.01281654 Ry

     iteration #  5     ecut=    50.00 Ry     beta= 0.10
     Davidson diagonalization with overlap
     ethr =  1.07E-04,  avg # of iterations =  1.0

     total cpu time spent up to now is        8.9 secs

     total energy              =    -141.24274893 Ry
     Harris-Foulkes estimate   =    -141.24162402 Ry
     estimated scf accuracy    <       0.00074239 Ry

     iteration #  6     ecut=    50.00 Ry     beta= 0.10
     Davidson diagonalization with overlap
     ethr =  6.19E-06,  avg # of iterations =  3.0

     total cpu time spent up to now is       10.6 secs

     total energy              =    -141.24292340 Ry
     Harris-Foulkes estimate   =    -141.24302995 Ry
     estimated scf accuracy    <       0.00007704 Ry

     iteration #  7     ecut=    50.00 Ry     beta= 0.10
     Davidson diagonalization with overlap
     ethr =  6.42E-07,  avg # of iterations =  1.2

     total cpu time spent up to now is       12.0 secs

     total energy              =    -141.24185667 Ry
     Harris-Foulkes estimate   =    -141.24292463 Ry
     estimated scf accuracy    <       0.00006750 Ry

     iteration #  8     ecut=    50.00 Ry     beta= 0.10
     Davidson diagonalization with overlap
     ethr =  5.63E-07,  avg # of iterations =  2.9

     total cpu time spent up to now is       13.7 secs

     total energy              =    -141.24194163 Ry
     Harris-Foulkes estimate   =    -141.24192707 Ry
     estimated scf accuracy    <       0.00000594 Ry

     iteration #  9     ecut=    50.00 Ry     beta= 0.10
     Davidson diagonalization with overlap
     ethr =  4.95E-08,  avg # of iterations =  1.0

     total cpu time spent up to now is       14.5 secs

     total energy              =    -141.24185813 Ry
     Harris-Foulkes estimate   =    -141.24194195 Ry
     estimated scf accuracy    <       0.00000994 Ry

     iteration # 10     ecut=    50.00 Ry     beta= 0.10
     Davidson diagonalization with overlap
     ethr =  4.95E-08,  avg # of iterations =  3.0

     total cpu time spent up to now is       15.1 secs

     total energy              =    -141.24186768 Ry
     Harris-Foulkes estimate   =    -141.24186815 Ry
     estimated scf accuracy    <       0.00000309 Ry

     iteration # 11     ecut=    50.00 Ry     beta= 0.10
     Davidson diagonalization with overlap
     ethr =  2.58E-08,  avg # of iterations =  1.0

     total cpu time spent up to now is       15.6 secs

     total energy              =    -141.24186793 Ry
     Harris-Foulkes estimate   =    -141.24186770 Ry
     estimated scf accuracy    <       0.00000266 Ry

     iteration # 12     ecut=    50.00 Ry     beta= 0.10
     Davidson diagonalization with overlap
     ethr =  2.22E-08,  avg # of iterations =  1.0

     total cpu time spent up to now is       16.0 secs

     End of self-consistent calculation

          k = 0.1250 0.1250 0.1250 (   401 PWs)   bands (ev):

    30.9189  41.4404  41.4595  41.4782  52.4319  52.4522  52.4723  54.9358
    54.9457  54.9557

          k = 0.1250 0.1250 0.3750 (   392 PWs)   bands (ev):

    34.4115  39.0175  43.9460  43.9648  51.8153  51.8325  54.8815  54.8901
    55.6952  61.5198

          k = 0.1250 0.3750 0.3750 (   389 PWs)   bands (ev):

    37.4266  41.6612  41.6981  44.5533  50.4975  52.9101  52.9593  57.0499
    57.5716  60.7346

          k = 0.3750 0.3750 0.3750 (   389 PWs)   bands (ev):

    39.8920  43.9807  44.0186  44.0564  47.7788  47.8203  47.8618  51.6542
    66.9752  66.9799

          k =-0.1250-0.1250 0.1250 (   401 PWs)   bands (ev):

    30.9189  41.4443  41.4594  41.4742  52.4361  52.4521  52.4680  54.9379
    54.9457  54.9536

          k =-0.1250 0.1250-0.1250 (   401 PWs)   bands (ev):

    30.9189  41.4482  41.4594  41.4703  52.4402  52.4521  52.4639  54.9399
    54.9457  54.9516

          k = 0.1250-0.1250-0.1250 (   401 PWs)   bands (ev):

    30.9189  41.4462  41.4594  41.4724  52.4381  52.4522  52.4661  54.9388
    54.9457  54.9526

          k =-0.1250-0.1250 0.3750 (   392 PWs)   bands (ev):

    34.4115  39.0176  43.9460  43.9648  51.8153  51.8326  54.8815  54.8902
    55.6949  61.5198

          k =-0.1250 0.1250-0.3750 (   392 PWs)   bands (ev):

    34.4115  39.0176  43.9511  43.9597  51.8199  51.8278  54.8838  54.8878
    55.6950  61.5197

          k = 0.1250-0.1250-0.3750 (   392 PWs)   bands (ev):

    34.4115  39.0175  43.9511  43.9597  51.8199  51.8278  54.8838  54.8878
    55.6952  61.5193

          k = 0.3750-0.1250 0.1250 (   392 PWs)   bands (ev):

    34.4115  39.0174  43.9511  43.9598  51.8197  51.8277  54.8840  54.8880
    55.6952  61.5198

          k =-0.3750-0.1250-0.1250 (   392 PWs)   bands (ev):

    34.4115  39.0174  43.9474  43.9634  51.8167  51.8313  54.8818  54.8892
    55.6958  61.5199

          k = 0.3750 0.1250-0.1250 (   392 PWs)   bands (ev):

    34.4115  39.0174  43.9511  43.9598  51.8197  51.8277  54.8840  54.8880
    55.6952  61.5199

          k =-0.3750 0.1250 0.1250 (   392 PWs)   bands (ev):

    34.4115  39.0174  43.9474  43.9634  51.8167  51.8314  54.8818  54.8892
    55.6954  61.5198

          k =-0.1250 0.3750 0.1250 (   392 PWs)   bands (ev):

    34.4115  39.0174  43.9544  43.9568  51.8228  51.8251  54.8851  54.8863
    55.6951  61.5198

          k =-0.1250-0.3750-0.1250 (   392 PWs)   bands (ev):

    34.4115  39.0173  43.9509  43.9603  51.8195  51.8282  54.8836  54.8880
    55.6952  61.5199

          k = 0.1250 0.3750-0.1250 (   392 PWs)   bands (ev):

    34.4115  39.0174  43.9544  43.9568  51.8228  51.8250  54.8850  54.8862
    55.6955  61.5197

          k = 0.1250-0.3750 0.1250 (   392 PWs)   bands (ev):

    34.4115  39.0174  43.9509  43.9603  51.8196  51.8282  54.8836  54.8879
    55.6951  61.5198

          k =-0.1250-0.3750 0.3750 (   389 PWs)   bands (ev):

    37.4265  41.6697  41.6898  44.5531  50.4977  52.9212  52.9480  57.0493
    57.5725  60.7424

          k =-0.1250 0.3750-0.3750 (   389 PWs)   bands (ev):

    37.4265  41.6697  41.6898  44.5531  50.4976  52.9212  52.9480  57.0489
    57.5730  60.7393

          k = 0.1250-0.3750-0.3750 (   389 PWs)   bands (ev):

    37.4266  41.6613  41.6982  44.5533  50.4975  52.9101  52.9593  57.0495
    57.5718  60.7346

          k = 0.3750 0.1250-0.3750 (   389 PWs)   bands (ev):

    37.4266  41.6769  41.6825  44.5532  50.4975  52.9311  52.9385  57.0500
    57.5718  60.7402

          k =-0.3750-0.1250-0.3750 (   389 PWs)   bands (ev):

    37.4266  41.6689  41.6905  44.5530  50.4978  52.9204  52.9492  57.0502
    57.5714  60.7369

          k = 0.3750-0.1250 0.3750 (   389 PWs)   bands (ev):

    37.4265  41.6689  41.6906  44.5531  50.4976  52.9202  52.9491  57.0503
    57.5715  60.7418

          k =-0.3750 0.1250 0.3750 (   389 PWs)   bands (ev):

    37.4266  41.6769  41.6825  44.5531  50.4976  52.9311  52.9385  57.0496
    57.5718  60.7406

          k = 0.3750-0.3750 0.1250 (   389 PWs)   bands (ev):

    37.4266  41.6698  41.6896  44.5532  50.4973  52.9214  52.9478  57.0502
    57.5716  60.7374

          k =-0.3750-0.3750-0.1250 (   389 PWs)   bands (ev):

    37.4266  41.6580  41.7014  44.5531  50.4977  52.9058  52.9635  57.0481
    57.5735  60.7398

          k = 0.3750 0.3750-0.1250 (   389 PWs)   bands (ev):

    37.4266  41.6580  41.7014  44.5531  50.4975  52.9057  52.9635  57.0502
    57.5715  60.7336

          k =-0.3750 0.3750 0.1250 (   389 PWs)   bands (ev):

    37.4266  41.6697  41.6896  44.5532  50.4977  52.9215  52.9480  57.0456
    57.5761  60.7372

          k =-0.3750-0.3750 0.3750 (   389 PWs)   bands (ev):

    39.8919  43.9886  44.0186  44.0484  47.7876  47.8203  47.8531  51.6543
    66.9759  66.9793

          k =-0.3750 0.3750-0.3750 (   389 PWs)   bands (ev):

    39.8919  43.9963  44.0186  44.0406  47.7961  47.8203  47.8446  51.6543
    66.9781  66.9802

          k = 0.3750-0.3750-0.3750 (   389 PWs)   bands (ev):

    39.8919  43.9922  44.0185  44.0447  47.7916  47.8204  47.8492  51.6542
    66.9775  66.9797

     the Fermi energy is    52.6640 ev

!    total energy              =    -141.24186637 Ry
     Harris-Foulkes estimate   =    -141.24186799 Ry
     estimated scf accuracy    <       0.00000051 Ry

     total all-electron energy =     -1925.812988 Ry

     The total energy is the sum of the following terms:

     one-electron contribution =      58.67394084 Ry
     hartree contribution      =       0.21201709 Ry
     xc contribution           =     -17.28569626 Ry
     ewald contribution        =     -40.85514765 Ry
     one-center paw contrib.   =    -141.98636512 Ry
     smearing contrib. (-TS)   =      -0.00061528 Ry

     convergence has been achieved in  12 iterations

     Forces acting on atoms (cartesian axes, Ry/au):

     atom    1 type  1   force =     0.00200657   -0.00038443    0.01643475
     atom    2 type  1   force =    -0.00323845    0.00372503    0.01640369
     atom    3 type  1   force =    -0.00055974   -0.00070018   -0.01729024
     atom    4 type  1   force =     0.00179162   -0.00264043   -0.01554820

     Total force =     0.033457     Total SCF correction =     0.000006


     Computing stress (Cartesian axis) and pressure

          total   stress  (Ry/bohr**3)                   (kbar)     P=59675.50
   0.40567128   0.00000104   0.00000098      59676.30      0.15      0.14
   0.00000104   0.40565998  -0.00000110          0.15  59674.63     -0.16
   0.00000098  -0.00000110   0.40566636          0.14     -0.16  59675.57


     Writing output data file fe_scf_fcc_2.save/

     init_run     :      0.64s CPU      0.64s WALL (       1 calls)
     electrons    :     14.61s CPU     14.93s WALL (       1 calls)
     forces       :      0.05s CPU      0.05s WALL (       1 calls)
     stress       :      0.13s CPU      0.13s WALL (       1 calls)

     Called by init_run:
     wfcinit      :      0.14s CPU      0.14s WALL (       1 calls)
     potinit      :      0.25s CPU      0.26s WALL (       1 calls)
     hinit0       :      0.24s CPU      0.23s WALL (       1 calls)

     Called by electrons:
     c_bands      :      6.34s CPU      6.51s WALL (      12 calls)
     sum_band     :      1.15s CPU      1.18s WALL (      12 calls)
     v_of_rho     :      0.16s CPU      0.16s WALL (      13 calls)
     newd         :      0.16s CPU      0.15s WALL (      13 calls)
     PAW_pot      :      7.03s CPU      7.14s WALL (      13 calls)
     mix_rho      :      0.02s CPU      0.02s WALL (      12 calls)

     Called by c_bands:
     init_us_2    :      0.26s CPU      0.28s WALL (     864 calls)
     cegterg      :      5.90s CPU      6.07s WALL (     384 calls)

     Called by sum_band:
     sum_band:bec :      0.02s CPU      0.01s WALL (     384 calls)
     addusdens    :      0.10s CPU      0.10s WALL (      12 calls)

     Called by *egterg:
     h_psi        :      4.52s CPU      4.62s WALL (    1153 calls)
     s_psi        :      0.25s CPU      0.28s WALL (    1153 calls)
     g_psi        :      0.05s CPU      0.04s WALL (     737 calls)
     cdiaghg      :      0.51s CPU      0.52s WALL (    1121 calls)

     Called by h_psi:
     h_psi:pot    :      4.49s CPU      4.59s WALL (    1153 calls)
     h_psi:calbec :      0.30s CPU      0.29s WALL (    1153 calls)
     vloc_psi     :      3.85s CPU      4.00s WALL (    1153 calls)
     add_vuspsi   :      0.33s CPU      0.29s WALL (    1153 calls)

     General routines
     calbec       :      0.40s CPU      0.41s WALL (    1697 calls)
     fft          :      0.03s CPU      0.04s WALL (     193 calls)
     ffts         :      0.00s CPU      0.01s WALL (      25 calls)
     fftw         :      3.92s CPU      4.06s WALL (   23908 calls)
     interpolate  :      0.00s CPU      0.01s WALL (      13 calls)

     Parallel routines

     PWSCF        :    15.87s CPU        16.21s WALL


   This run was terminated on:   2:49:55  20Oct2019            

=------------------------------------------------------------------------------=
   JOB DONE.
=------------------------------------------------------------------------------=
