
     Program PWSCF v.6.3 starts on 19Oct2019 at 23:19:36 

     This program is part of the open-source Quantum ESPRESSO suite
     for quantum simulation of materials; please cite
         "P. Giannozzi et al., J. Phys.:Condens. Matter 21 395502 (2009);
         "P. Giannozzi et al., J. Phys.:Condens. Matter 29 465901 (2017);
          URL http://www.quantum-espresso.org", 
     in publications or presentations arising from this work. More details at
     http://www.quantum-espresso.org/quote

     Parallel version (MPI), running on     1 processors

     MPI processes distributed on     1 nodes
     Reading input from /cloud/Code/python/py_pwscf_converge/src/example/wd/runpwscf/file_10023.in
Warning: card &IONS ignored
Warning: card ION_DYNAMICS = 'BFGS', ignored
Warning: card / ignored
Warning: card &CELL ignored
Warning: card CELL_DYNAMICS = 'BFGS', ignored
Warning: card CELL_FACTOR = 2.0, ignored
Warning: card PRESS = 0.0, ignored
Warning: card / ignored

     Current dimensions of program PWSCF are:
     Max number of different atomic species (ntypx) = 10
     Max number of k-points (npk) =  40000
     Max angular momentum in pseudopotentials (lmaxx) =  3
               file Al.pbe-nl-kjpaw_psl.1.0.0.UPF: wavefunction(s)  3S 3P renormalized

     Subspace diagonalization in iterative solution of the eigenvalue problem:
     a serial algorithm will be used


     G-vector sticks info
     --------------------
     sticks:   dense  smooth     PW     G-vecs:    dense   smooth      PW
     Sum         241     177     61                 2721     1839     365



     bravais-lattice index     =            0
     lattice parameter (alat)  =       4.0400  a.u.
     unit-cell volume          =      65.9393 (a.u.)^3
     number of atoms/cell      =            4
     number of atomic types    =            1
     number of electrons       =        12.00
     number of Kohn-Sham states=           10
     kinetic-energy cutoff     =      35.0000  Ry
     charge density cutoff     =     180.0000  Ry
     convergence threshold     =      1.0E-06
     mixing beta               =       0.1000
     number of iterations used =           10  TF        mixing
     Exchange-correlation      = SLA PW PBX PBC ( 1  4  3  4 0 0)

     celldm(1)=   4.040000  celldm(2)=   0.000000  celldm(3)=   0.000000
     celldm(4)=   0.000000  celldm(5)=   0.000000  celldm(6)=   0.000000

     crystal axes: (cart. coord. in units of alat)
               a(1) = (   1.000000   0.000000   0.000000 )  
               a(2) = (   0.000000   1.000000   0.000000 )  
               a(3) = (   0.000000   0.000000   1.000000 )  

     reciprocal axes: (cart. coord. in units 2 pi/alat)
               b(1) = (  1.000000  0.000000  0.000000 )  
               b(2) = (  0.000000  1.000000  0.000000 )  
               b(3) = (  0.000000  0.000000  1.000000 )  


     PseudoPot. # 1 for Al read from file:
     /opt/pp/Al.pbe-nl-kjpaw_psl.1.0.0.UPF
     MD5 check sum: 1b67f78b73fe58c7924490f171ce8a1e
     Pseudo is Projector augmented-wave + core cor, Zval =  3.0
     Generated using "atomic" code by A. Dal Corso v.6.3
     Shape of augmentation charge: PSQ
     Using radial grid of 1135 points,  4 beta functions with: 
                l(1) =   0
                l(2) =   0
                l(3) =   1
                l(4) =   1
     Q(r) pseudized with 0 coefficients 


     atomic species   valence    mass     pseudopotential
        Al             3.00    26.98200     Al( 1.00)

     No symmetry found



   Cartesian axes

     site n.     atom                  positions (alat units)
         1           Al  tau(   1) = (  -0.0001235   0.0000359   0.0002572  )
         2           Al  tau(   2) = (   0.5003009   0.4992819   0.0002658  )
         3           Al  tau(   3) = (   0.4996490   0.0001153   0.5011170  )
         4           Al  tau(   4) = (  -0.0000756   0.5008267   0.5006943  )

     number of k points=    32  Marzari-Vanderbilt smearing, width (Ry)=  0.0200
                       cart. coord. in units 2pi/alat
        k(    1) = (   0.1250000   0.1250000   0.1250000), wk =   0.0625000
        k(    2) = (   0.1250000   0.1250000   0.3750000), wk =   0.0625000
        k(    3) = (   0.1250000   0.3750000   0.3750000), wk =   0.0625000
        k(    4) = (   0.3750000   0.3750000   0.3750000), wk =   0.0625000
        k(    5) = (  -0.1250000  -0.1250000   0.1250000), wk =   0.0625000
        k(    6) = (  -0.1250000   0.1250000  -0.1250000), wk =   0.0625000
        k(    7) = (   0.1250000  -0.1250000  -0.1250000), wk =   0.0625000
        k(    8) = (  -0.1250000  -0.1250000   0.3750000), wk =   0.0625000
        k(    9) = (  -0.1250000   0.1250000  -0.3750000), wk =   0.0625000
        k(   10) = (   0.1250000  -0.1250000  -0.3750000), wk =   0.0625000
        k(   11) = (   0.3750000  -0.1250000   0.1250000), wk =   0.0625000
        k(   12) = (  -0.3750000  -0.1250000  -0.1250000), wk =   0.0625000
        k(   13) = (   0.3750000   0.1250000  -0.1250000), wk =   0.0625000
        k(   14) = (  -0.3750000   0.1250000   0.1250000), wk =   0.0625000
        k(   15) = (  -0.1250000   0.3750000   0.1250000), wk =   0.0625000
        k(   16) = (  -0.1250000  -0.3750000  -0.1250000), wk =   0.0625000
        k(   17) = (   0.1250000   0.3750000  -0.1250000), wk =   0.0625000
        k(   18) = (   0.1250000  -0.3750000   0.1250000), wk =   0.0625000
        k(   19) = (  -0.1250000  -0.3750000   0.3750000), wk =   0.0625000
        k(   20) = (  -0.1250000   0.3750000  -0.3750000), wk =   0.0625000
        k(   21) = (   0.1250000  -0.3750000  -0.3750000), wk =   0.0625000
        k(   22) = (   0.3750000   0.1250000  -0.3750000), wk =   0.0625000
        k(   23) = (  -0.3750000  -0.1250000  -0.3750000), wk =   0.0625000
        k(   24) = (   0.3750000  -0.1250000   0.3750000), wk =   0.0625000
        k(   25) = (  -0.3750000   0.1250000   0.3750000), wk =   0.0625000
        k(   26) = (   0.3750000  -0.3750000   0.1250000), wk =   0.0625000
        k(   27) = (  -0.3750000  -0.3750000  -0.1250000), wk =   0.0625000
        k(   28) = (   0.3750000   0.3750000  -0.1250000), wk =   0.0625000
        k(   29) = (  -0.3750000   0.3750000   0.1250000), wk =   0.0625000
        k(   30) = (  -0.3750000  -0.3750000   0.3750000), wk =   0.0625000
        k(   31) = (  -0.3750000   0.3750000  -0.3750000), wk =   0.0625000
        k(   32) = (   0.3750000  -0.3750000  -0.3750000), wk =   0.0625000

     Dense  grid:     2721 G-vectors     FFT dimensions: (  18,  18,  18)

     Smooth grid:     1839 G-vectors     FFT dimensions: (  15,  15,  15)

     Estimated max dynamical RAM per process >       5.39 MB

     Initial potential from superposition of free atoms

     starting charge   11.99084, renormalised to   12.00000
     Starting wfcs are   16 randomized atomic wfcs
     Checking if some PAW data can be deallocated... 

     total cpu time spent up to now is        1.0 secs

     Self-consistent Calculation

     iteration #  1     ecut=    35.00 Ry     beta= 0.10
     Davidson diagonalization with overlap
     ethr =  1.00E-02,  avg # of iterations =  4.6

     total cpu time spent up to now is        1.5 secs

     total energy              =    -141.64776495 Ry
     Harris-Foulkes estimate   =    -141.80229589 Ry
     estimated scf accuracy    <       0.18108580 Ry

     iteration #  2     ecut=    35.00 Ry     beta= 0.10
     Davidson diagonalization with overlap
     ethr =  1.51E-03,  avg # of iterations =  1.0

     total cpu time spent up to now is        1.9 secs

     total energy              =    -141.15681769 Ry
     Harris-Foulkes estimate   =    -141.65108182 Ry
     estimated scf accuracy    <       0.15192412 Ry

     iteration #  3     ecut=    35.00 Ry     beta= 0.10
     Davidson diagonalization with overlap
     ethr =  1.27E-03,  avg # of iterations =  2.0

     total cpu time spent up to now is        2.3 secs

     total energy              =    -141.23447291 Ry
     Harris-Foulkes estimate   =    -141.24476159 Ry
     estimated scf accuracy    <       0.01490256 Ry

     iteration #  4     ecut=    35.00 Ry     beta= 0.10
     Davidson diagonalization with overlap
     ethr =  1.24E-04,  avg # of iterations =  1.0

     total cpu time spent up to now is        2.7 secs

     total energy              =    -141.23723175 Ry
     Harris-Foulkes estimate   =    -141.23500279 Ry
     estimated scf accuracy    <       0.01158587 Ry

     iteration #  5     ecut=    35.00 Ry     beta= 0.10
     Davidson diagonalization with overlap
     ethr =  9.65E-05,  avg # of iterations =  1.5

     total cpu time spent up to now is        3.0 secs

     total energy              =    -141.23916324 Ry
     Harris-Foulkes estimate   =    -141.23837816 Ry
     estimated scf accuracy    <       0.00052062 Ry

     iteration #  6     ecut=    35.00 Ry     beta= 0.10
     Davidson diagonalization with overlap
     ethr =  4.34E-06,  avg # of iterations =  2.4

     total cpu time spent up to now is        3.4 secs

     total energy              =    -141.23932082 Ry
     Harris-Foulkes estimate   =    -141.23932598 Ry
     estimated scf accuracy    <       0.00011059 Ry

     iteration #  7     ecut=    35.00 Ry     beta= 0.10
     Davidson diagonalization with overlap
     ethr =  9.22E-07,  avg # of iterations =  1.0

     total cpu time spent up to now is        3.8 secs

     total energy              =    -141.23882451 Ry
     Harris-Foulkes estimate   =    -141.23932282 Ry
     estimated scf accuracy    <       0.00011675 Ry

     iteration #  8     ecut=    35.00 Ry     beta= 0.10
     Davidson diagonalization with overlap
     ethr =  9.22E-07,  avg # of iterations =  1.2

     total cpu time spent up to now is        4.1 secs

     total energy              =    -141.23852223 Ry
     Harris-Foulkes estimate   =    -141.23883593 Ry
     estimated scf accuracy    <       0.00003200 Ry

     iteration #  9     ecut=    35.00 Ry     beta= 0.10
     Davidson diagonalization with overlap
     ethr =  2.67E-07,  avg # of iterations =  2.9

     total cpu time spent up to now is        4.5 secs

     total energy              =    -141.23855660 Ry
     Harris-Foulkes estimate   =    -141.23854318 Ry
     estimated scf accuracy    <       0.00000449 Ry

     iteration # 10     ecut=    35.00 Ry     beta= 0.10
     Davidson diagonalization with overlap
     ethr =  3.75E-08,  avg # of iterations =  2.0

     total cpu time spent up to now is        4.9 secs

     total energy              =    -141.23849562 Ry
     Harris-Foulkes estimate   =    -141.23855703 Ry
     estimated scf accuracy    <       0.00000763 Ry

     iteration # 11     ecut=    35.00 Ry     beta= 0.10
     Davidson diagonalization with overlap
     ethr =  3.75E-08,  avg # of iterations =  3.0

     total cpu time spent up to now is        5.3 secs

     End of self-consistent calculation

          k = 0.1250 0.1250 0.1250 (   233 PWs)   bands (ev):

    30.9203  41.4428  41.4620  41.4805  52.4417  52.4622  52.4820  54.9379
    54.9480  54.9576

          k = 0.1250 0.1250 0.3750 (   228 PWs)   bands (ev):

    34.4123  39.0203  43.9504  43.9693  51.8237  51.8410  54.8899  54.8986
    55.7125  61.5414

          k = 0.1250 0.3750 0.3750 (   231 PWs)   bands (ev):

    37.4277  41.6631  41.6997  44.5548  50.5004  52.9190  52.9678  57.0712
    57.5860  60.7538

          k = 0.3750 0.3750 0.3750 (   244 PWs)   bands (ev):

    39.8930  43.9815  44.0195  44.0569  47.7803  47.8219  47.8629  51.6563
    66.9860  66.9905

          k =-0.1250-0.1250 0.1250 (   233 PWs)   bands (ev):

    30.9203  41.4467  41.4619  41.4766  52.4461  52.4618  52.4780  54.9401
    54.9477  54.9557

          k =-0.1250 0.1250-0.1250 (   233 PWs)   bands (ev):

    30.9203  41.4506  41.4620  41.4727  52.4500  52.4622  52.4736  54.9420
    54.9480  54.9536

          k = 0.1250-0.1250-0.1250 (   233 PWs)   bands (ev):

    30.9203  41.4486  41.4619  41.4747  52.4480  52.4619  52.4760  54.9411
    54.9477  54.9548

          k =-0.1250-0.1250 0.3750 (   228 PWs)   bands (ev):

    34.4123  39.0203  43.9504  43.9693  51.8238  51.8410  54.8900  54.8986
    55.7123  61.5417

          k =-0.1250 0.1250-0.3750 (   228 PWs)   bands (ev):

    34.4123  39.0203  43.9555  43.9642  51.8284  51.8363  54.8923  54.8963
    55.7124  61.5417

          k = 0.1250-0.1250-0.3750 (   228 PWs)   bands (ev):

    34.4123  39.0203  43.9555  43.9642  51.8284  51.8363  54.8923  54.8963
    55.7126  61.5415

          k = 0.3750-0.1250 0.1250 (   228 PWs)   bands (ev):

    34.4124  39.0202  43.9555  43.9643  51.8282  51.8362  54.8924  54.8965
    55.7125  61.5417

          k =-0.3750-0.1250-0.1250 (   228 PWs)   bands (ev):

    34.4124  39.0202  43.9519  43.9679  51.8251  51.8397  54.8903  54.8976
    55.7131  61.5417

          k = 0.3750 0.1250-0.1250 (   228 PWs)   bands (ev):

    34.4124  39.0202  43.9555  43.9643  51.8282  51.8362  54.8925  54.8965
    55.7126  61.5418

          k =-0.3750 0.1250 0.1250 (   228 PWs)   bands (ev):

    34.4124  39.0202  43.9519  43.9679  51.8252  51.8398  54.8904  54.8977
    55.7127  61.5418

          k =-0.1250 0.3750 0.1250 (   228 PWs)   bands (ev):

    34.4124  39.0201  43.9588  43.9612  51.8313  51.8335  54.8936  54.8948
    55.7124  61.5418

          k =-0.1250-0.3750-0.1250 (   228 PWs)   bands (ev):

    34.4124  39.0201  43.9554  43.9648  51.8280  51.8366  54.8921  54.8964
    55.7125  61.5417

          k = 0.1250 0.3750-0.1250 (   228 PWs)   bands (ev):

    34.4124  39.0201  43.9588  43.9613  51.8312  51.8335  54.8935  54.8947
    55.7128  61.5416

          k = 0.1250-0.3750 0.1250 (   228 PWs)   bands (ev):

    34.4124  39.0202  43.9553  43.9647  51.8280  51.8366  54.8921  54.8964
    55.7124  61.5417

          k =-0.1250-0.3750 0.3750 (   231 PWs)   bands (ev):

    37.4277  41.6714  41.6915  44.5546  50.5005  52.9300  52.9567  57.0705
    57.5869  60.7564

          k =-0.1250 0.3750-0.3750 (   231 PWs)   bands (ev):

    37.4277  41.6714  41.6915  44.5546  50.5005  52.9300  52.9566  57.0701
    57.5874  60.7527

          k = 0.1250-0.3750-0.3750 (   231 PWs)   bands (ev):

    37.4277  41.6631  41.6997  44.5548  50.5004  52.9190  52.9678  57.0708
    57.5862  60.7493

          k = 0.3750 0.1250-0.3750 (   231 PWs)   bands (ev):

    37.4277  41.6786  41.6841  44.5547  50.5004  52.9398  52.9472  57.0712
    57.5862  60.7541

          k =-0.3750-0.1250-0.3750 (   231 PWs)   bands (ev):

    37.4277  41.6707  41.6921  44.5545  50.5006  52.9292  52.9578  57.0714
    57.5858  60.7516

          k = 0.3750-0.1250 0.3750 (   231 PWs)   bands (ev):

    37.4277  41.6707  41.6922  44.5546  50.5005  52.9291  52.9577  57.0716
    57.5859  60.7513

          k =-0.3750 0.1250 0.3750 (   231 PWs)   bands (ev):

    37.4277  41.6786  41.6841  44.5546  50.5005  52.9399  52.9472  57.0709
    57.5862  60.7551

          k = 0.3750-0.3750 0.1250 (   231 PWs)   bands (ev):

    37.4278  41.6714  41.6914  44.5547  50.5002  52.9300  52.9566  57.0714
    57.5860  60.7540

          k =-0.3750-0.3750-0.1250 (   231 PWs)   bands (ev):

    37.4278  41.6598  41.7031  44.5546  50.5006  52.9145  52.9722  57.0694
    57.5879  60.7517

          k = 0.3750 0.3750-0.1250 (   231 PWs)   bands (ev):

    37.4278  41.6598  41.7031  44.5546  50.5004  52.9145  52.9721  57.0715
    57.5859  60.7485

          k =-0.3750 0.3750 0.1250 (   231 PWs)   bands (ev):

    37.4278  41.6714  41.6914  44.5547  50.5005  52.9302  52.9567  57.0668
    57.5905  60.7530

          k =-0.3750-0.3750 0.3750 (   244 PWs)   bands (ev):

    39.8929  43.9894  44.0194  44.0491  47.7890  47.8215  47.8545  51.6564
    66.9877  66.9914

          k =-0.3750 0.3750-0.3750 (   244 PWs)   bands (ev):

    39.8929  43.9971  44.0195  44.0412  47.7974  47.8218  47.8458  51.6565
    66.9873  66.9897

          k = 0.3750-0.3750-0.3750 (   244 PWs)   bands (ev):

    39.8929  43.9931  44.0193  44.0454  47.7932  47.8216  47.8505  51.6563
    66.9883  66.9915

     the Fermi energy is    52.6736 ev

!    total energy              =    -141.23850290 Ry
     Harris-Foulkes estimate   =    -141.23850394 Ry
     estimated scf accuracy    <       0.00000044 Ry

     total all-electron energy =     -1925.809625 Ry

     The total energy is the sum of the following terms:

     one-electron contribution =      58.67945045 Ry
     hartree contribution      =       0.21170081 Ry
     xc contribution           =     -17.28535696 Ry
     ewald contribution        =     -40.85514779 Ry
     one-center paw contrib.   =    -141.98851572 Ry
     smearing contrib. (-TS)   =      -0.00063369 Ry

     convergence has been achieved in  11 iterations

     Forces acting on atoms (cartesian axes, Ry/au):

     atom    1 type  1   force =     0.00202289   -0.00046458    0.01648416
     atom    2 type  1   force =    -0.00333558    0.00380923    0.01642507
     atom    3 type  1   force =    -0.00049147   -0.00061531   -0.01739574
     atom    4 type  1   force =     0.00180416   -0.00272933   -0.01551349

     Total force =     0.033557     Total SCF correction =     0.000019


     Computing stress (Cartesian axis) and pressure

          total   stress  (Ry/bohr**3)                   (kbar)     P=59624.52
   0.40532492   0.00000127   0.00000089      59625.34      0.19      0.13
   0.00000127   0.40531325  -0.00000098          0.19  59623.63     -0.14
   0.00000089  -0.00000098   0.40531970          0.13     -0.14  59624.58


     Writing output data file fe_scf_fcc_2.save/

     init_run     :      0.55s CPU      0.57s WALL (       1 calls)
     electrons    :      4.06s CPU      4.25s WALL (       1 calls)
     forces       :      0.03s CPU      0.03s WALL (       1 calls)
     stress       :      0.08s CPU      0.08s WALL (       1 calls)

     Called by init_run:
     wfcinit      :      0.07s CPU      0.07s WALL (       1 calls)
     potinit      :      0.26s CPU      0.27s WALL (       1 calls)
     hinit0       :      0.21s CPU      0.22s WALL (       1 calls)

     Called by electrons:
     c_bands      :      1.10s CPU      1.15s WALL (      11 calls)
     sum_band     :      0.19s CPU      0.20s WALL (      11 calls)
     v_of_rho     :      0.06s CPU      0.06s WALL (      12 calls)
     newd         :      0.05s CPU      0.05s WALL (      12 calls)
     PAW_pot      :      2.91s CPU      3.04s WALL (      12 calls)
     mix_rho      :      0.02s CPU      0.01s WALL (      11 calls)

     Called by c_bands:
     init_us_2    :      0.06s CPU      0.07s WALL (     800 calls)
     cegterg      :      1.00s CPU      1.05s WALL (     352 calls)

     Called by sum_band:
     sum_band:bec :      0.01s CPU      0.00s WALL (     352 calls)
     addusdens    :      0.02s CPU      0.03s WALL (      11 calls)

     Called by *egterg:
     h_psi        :      0.67s CPU      0.68s WALL (    1107 calls)
     s_psi        :      0.05s CPU      0.06s WALL (    1107 calls)
     g_psi        :      0.00s CPU      0.01s WALL (     723 calls)
     cdiaghg      :      0.19s CPU      0.19s WALL (    1075 calls)

     Called by h_psi:
     h_psi:pot    :      0.67s CPU      0.68s WALL (    1107 calls)
     h_psi:calbec :      0.08s CPU      0.06s WALL (    1107 calls)
     vloc_psi     :      0.53s CPU      0.55s WALL (    1107 calls)
     add_vuspsi   :      0.06s CPU      0.06s WALL (    1107 calls)

     General routines
     calbec       :      0.12s CPU      0.09s WALL (    1619 calls)
     fft          :      0.04s CPU      0.03s WALL (     180 calls)
     ffts         :      0.00s CPU      0.00s WALL (      23 calls)
     fftw         :      0.54s CPU      0.54s WALL (   22082 calls)
     interpolate  :      0.00s CPU      0.00s WALL (      12 calls)

     Parallel routines

     PWSCF        :     5.18s CPU         5.40s WALL


   This run was terminated on:  23:19:41  19Oct2019            

=------------------------------------------------------------------------------=
   JOB DONE.
=------------------------------------------------------------------------------=
