
     Program PWSCF v.6.3 starts on 20Oct2019 at  3: 4:38 

     This program is part of the open-source Quantum ESPRESSO suite
     for quantum simulation of materials; please cite
         "P. Giannozzi et al., J. Phys.:Condens. Matter 21 395502 (2009);
         "P. Giannozzi et al., J. Phys.:Condens. Matter 29 465901 (2017);
          URL http://www.quantum-espresso.org", 
     in publications or presentations arising from this work. More details at
     http://www.quantum-espresso.org/quote

     Parallel version (MPI), running on     1 processors

     MPI processes distributed on     1 nodes
     Reading input from /cloud/Code/python/py_pwscf_converge/src/example/wd/runpwscf/file_10171.in
Warning: card &IONS ignored
Warning: card ION_DYNAMICS = 'BFGS', ignored
Warning: card / ignored
Warning: card &CELL ignored
Warning: card CELL_DYNAMICS = 'BFGS', ignored
Warning: card CELL_FACTOR = 2.0, ignored
Warning: card PRESS = 0.0, ignored
Warning: card / ignored

     Current dimensions of program PWSCF are:
     Max number of different atomic species (ntypx) = 10
     Max number of k-points (npk) =  40000
     Max angular momentum in pseudopotentials (lmaxx) =  3
               file Al.pbe-nl-kjpaw_psl.1.0.0.UPF: wavefunction(s)  3S 3P renormalized

     Subspace diagonalization in iterative solution of the eigenvalue problem:
     a serial algorithm will be used


     G-vector sticks info
     --------------------
     sticks:   dense  smooth     PW     G-vecs:    dense   smooth      PW
     Sum         385     385    121                 5743     5743    1021



     bravais-lattice index     =            0
     lattice parameter (alat)  =       4.0400  a.u.
     unit-cell volume          =      65.9393 (a.u.)^3
     number of atoms/cell      =            4
     number of atomic types    =            1
     number of electrons       =        12.00
     number of Kohn-Sham states=           10
     kinetic-energy cutoff     =      75.0000  Ry
     charge density cutoff     =     300.0000  Ry
     convergence threshold     =      1.0E-06
     mixing beta               =       0.1000
     number of iterations used =           10  TF        mixing
     Exchange-correlation      = SLA PW PBX PBC ( 1  4  3  4 0 0)

     celldm(1)=   4.040000  celldm(2)=   0.000000  celldm(3)=   0.000000
     celldm(4)=   0.000000  celldm(5)=   0.000000  celldm(6)=   0.000000

     crystal axes: (cart. coord. in units of alat)
               a(1) = (   1.000000   0.000000   0.000000 )  
               a(2) = (   0.000000   1.000000   0.000000 )  
               a(3) = (   0.000000   0.000000   1.000000 )  

     reciprocal axes: (cart. coord. in units 2 pi/alat)
               b(1) = (  1.000000  0.000000  0.000000 )  
               b(2) = (  0.000000  1.000000  0.000000 )  
               b(3) = (  0.000000  0.000000  1.000000 )  


     PseudoPot. # 1 for Al read from file:
     /opt/pp/Al.pbe-nl-kjpaw_psl.1.0.0.UPF
     MD5 check sum: 1b67f78b73fe58c7924490f171ce8a1e
     Pseudo is Projector augmented-wave + core cor, Zval =  3.0
     Generated using "atomic" code by A. Dal Corso v.6.3
     Shape of augmentation charge: PSQ
     Using radial grid of 1135 points,  4 beta functions with: 
                l(1) =   0
                l(2) =   0
                l(3) =   1
                l(4) =   1
     Q(r) pseudized with 0 coefficients 


     atomic species   valence    mass     pseudopotential
        Al             3.00    26.98200     Al( 1.00)

     No symmetry found



   Cartesian axes

     site n.     atom                  positions (alat units)
         1           Al  tau(   1) = (  -0.0001235   0.0000359   0.0002572  )
         2           Al  tau(   2) = (   0.5003009   0.4992819   0.0002658  )
         3           Al  tau(   3) = (   0.4996490   0.0001153   0.5011170  )
         4           Al  tau(   4) = (  -0.0000756   0.5008267   0.5006943  )

     number of k points=    32  Marzari-Vanderbilt smearing, width (Ry)=  0.0200
                       cart. coord. in units 2pi/alat
        k(    1) = (   0.1250000   0.1250000   0.1250000), wk =   0.0625000
        k(    2) = (   0.1250000   0.1250000   0.3750000), wk =   0.0625000
        k(    3) = (   0.1250000   0.3750000   0.3750000), wk =   0.0625000
        k(    4) = (   0.3750000   0.3750000   0.3750000), wk =   0.0625000
        k(    5) = (  -0.1250000  -0.1250000   0.1250000), wk =   0.0625000
        k(    6) = (  -0.1250000   0.1250000  -0.1250000), wk =   0.0625000
        k(    7) = (   0.1250000  -0.1250000  -0.1250000), wk =   0.0625000
        k(    8) = (  -0.1250000  -0.1250000   0.3750000), wk =   0.0625000
        k(    9) = (  -0.1250000   0.1250000  -0.3750000), wk =   0.0625000
        k(   10) = (   0.1250000  -0.1250000  -0.3750000), wk =   0.0625000
        k(   11) = (   0.3750000  -0.1250000   0.1250000), wk =   0.0625000
        k(   12) = (  -0.3750000  -0.1250000  -0.1250000), wk =   0.0625000
        k(   13) = (   0.3750000   0.1250000  -0.1250000), wk =   0.0625000
        k(   14) = (  -0.3750000   0.1250000   0.1250000), wk =   0.0625000
        k(   15) = (  -0.1250000   0.3750000   0.1250000), wk =   0.0625000
        k(   16) = (  -0.1250000  -0.3750000  -0.1250000), wk =   0.0625000
        k(   17) = (   0.1250000   0.3750000  -0.1250000), wk =   0.0625000
        k(   18) = (   0.1250000  -0.3750000   0.1250000), wk =   0.0625000
        k(   19) = (  -0.1250000  -0.3750000   0.3750000), wk =   0.0625000
        k(   20) = (  -0.1250000   0.3750000  -0.3750000), wk =   0.0625000
        k(   21) = (   0.1250000  -0.3750000  -0.3750000), wk =   0.0625000
        k(   22) = (   0.3750000   0.1250000  -0.3750000), wk =   0.0625000
        k(   23) = (  -0.3750000  -0.1250000  -0.3750000), wk =   0.0625000
        k(   24) = (   0.3750000  -0.1250000   0.3750000), wk =   0.0625000
        k(   25) = (  -0.3750000   0.1250000   0.3750000), wk =   0.0625000
        k(   26) = (   0.3750000  -0.3750000   0.1250000), wk =   0.0625000
        k(   27) = (  -0.3750000  -0.3750000  -0.1250000), wk =   0.0625000
        k(   28) = (   0.3750000   0.3750000  -0.1250000), wk =   0.0625000
        k(   29) = (  -0.3750000   0.3750000   0.1250000), wk =   0.0625000
        k(   30) = (  -0.3750000  -0.3750000   0.3750000), wk =   0.0625000
        k(   31) = (  -0.3750000   0.3750000  -0.3750000), wk =   0.0625000
        k(   32) = (   0.3750000  -0.3750000  -0.3750000), wk =   0.0625000

     Dense  grid:     5743 G-vectors     FFT dimensions: (  24,  24,  24)

     Estimated max dynamical RAM per process >      12.63 MB

     Initial potential from superposition of free atoms

     starting charge   11.99084, renormalised to   12.00000
     Starting wfcs are   16 randomized atomic wfcs
     Checking if some PAW data can be deallocated... 

     total cpu time spent up to now is        3.8 secs

     Self-consistent Calculation

     iteration #  1     ecut=    75.00 Ry     beta= 0.10
     Davidson diagonalization with overlap
     ethr =  1.00E-02,  avg # of iterations =  4.9

     total cpu time spent up to now is        8.4 secs

     total energy              =    -141.65274050 Ry
     Harris-Foulkes estimate   =    -141.80702879 Ry
     estimated scf accuracy    <       0.18109673 Ry

     iteration #  2     ecut=    75.00 Ry     beta= 0.10
     Davidson diagonalization with overlap
     ethr =  1.51E-03,  avg # of iterations =  1.0

     total cpu time spent up to now is       11.0 secs

     total energy              =    -141.16261214 Ry
     Harris-Foulkes estimate   =    -141.65531501 Ry
     estimated scf accuracy    <       0.15204569 Ry

     iteration #  3     ecut=    75.00 Ry     beta= 0.10
     Davidson diagonalization with overlap
     ethr =  1.27E-03,  avg # of iterations =  2.0

     total cpu time spent up to now is       13.7 secs

     total energy              =    -141.24360285 Ry
     Harris-Foulkes estimate   =    -141.25591624 Ry
     estimated scf accuracy    <       0.01566213 Ry

     iteration #  4     ecut=    75.00 Ry     beta= 0.10
     Davidson diagonalization with overlap
     ethr =  1.31E-04,  avg # of iterations =  1.0

     total cpu time spent up to now is       14.6 secs

     total energy              =    -141.24152346 Ry
     Harris-Foulkes estimate   =    -141.24404455 Ry
     estimated scf accuracy    <       0.01246533 Ry

     iteration #  5     ecut=    75.00 Ry     beta= 0.10
     Davidson diagonalization with overlap
     ethr =  1.04E-04,  avg # of iterations =  1.0

     total cpu time spent up to now is       15.5 secs

     total energy              =    -141.24347732 Ry
     Harris-Foulkes estimate   =    -141.24260165 Ry
     estimated scf accuracy    <       0.00074275 Ry

     iteration #  6     ecut=    75.00 Ry     beta= 0.10
     Davidson diagonalization with overlap
     ethr =  6.19E-06,  avg # of iterations =  2.8

     total cpu time spent up to now is       16.6 secs

     total energy              =    -141.24373653 Ry
     Harris-Foulkes estimate   =    -141.24373590 Ry
     estimated scf accuracy    <       0.00010453 Ry

     iteration #  7     ecut=    75.00 Ry     beta= 0.10
     Davidson diagonalization with overlap
     ethr =  8.71E-07,  avg # of iterations =  1.2

     total cpu time spent up to now is       17.5 secs

     total energy              =    -141.24274136 Ry
     Harris-Foulkes estimate   =    -141.24373778 Ry
     estimated scf accuracy    <       0.00009290 Ry

     iteration #  8     ecut=    75.00 Ry     beta= 0.10
     Davidson diagonalization with overlap
     ethr =  7.74E-07,  avg # of iterations =  2.9

     total cpu time spent up to now is       18.6 secs

     total energy              =    -141.24289240 Ry
     Harris-Foulkes estimate   =    -141.24283125 Ry
     estimated scf accuracy    <       0.00002663 Ry

     iteration #  9     ecut=    75.00 Ry     beta= 0.10
     Davidson diagonalization with overlap
     ethr =  2.22E-07,  avg # of iterations =  2.0

     total cpu time spent up to now is       19.5 secs

     total energy              =    -141.24280887 Ry
     Harris-Foulkes estimate   =    -141.24289702 Ry
     estimated scf accuracy    <       0.00000867 Ry

     iteration # 10     ecut=    75.00 Ry     beta= 0.10
     Davidson diagonalization with overlap
     ethr =  7.22E-08,  avg # of iterations =  3.0

     total cpu time spent up to now is       20.6 secs

     total energy              =    -141.24281825 Ry
     Harris-Foulkes estimate   =    -141.24281836 Ry
     estimated scf accuracy    <       0.00000124 Ry

     iteration # 11     ecut=    75.00 Ry     beta= 0.10
     Davidson diagonalization with overlap
     ethr =  1.04E-08,  avg # of iterations =  1.9

     total cpu time spent up to now is       21.6 secs

     End of self-consistent calculation

          k = 0.1250 0.1250 0.1250 (   724 PWs)   bands (ev):

    30.9136  41.4364  41.4555  41.4742  52.4293  52.4495  52.4696  54.9314
    54.9413  54.9513

          k = 0.1250 0.1250 0.3750 (   733 PWs)   bands (ev):

    34.4065  39.0129  43.9417  43.9605  51.8116  51.8289  54.8776  54.8863
    55.6925  61.5166

          k = 0.1250 0.3750 0.3750 (   723 PWs)   bands (ev):

    37.4217  41.6565  41.6935  44.5486  50.4939  52.9065  52.9556  57.0466
    57.5683  60.7356

          k = 0.3750 0.3750 0.3750 (   717 PWs)   bands (ev):

    39.8874  43.9761  44.0141  44.0518  47.7748  47.8163  47.8578  51.6504
    66.9738  66.9783

          k =-0.1250-0.1250 0.1250 (   724 PWs)   bands (ev):

    30.9136  41.4404  41.4555  41.4703  52.4335  52.4494  52.4654  54.9335
    54.9413  54.9492

          k =-0.1250 0.1250-0.1250 (   724 PWs)   bands (ev):

    30.9136  41.4442  41.4555  41.4664  52.4376  52.4495  52.4612  54.9355
    54.9413  54.9472

          k = 0.1250-0.1250-0.1250 (   724 PWs)   bands (ev):

    30.9136  41.4422  41.4555  41.4684  52.4355  52.4496  52.4635  54.9344
    54.9413  54.9482

          k =-0.1250-0.1250 0.3750 (   733 PWs)   bands (ev):

    34.4065  39.0129  43.9417  43.9605  51.8116  51.8289  54.8777  54.8863
    55.6922  61.5167

          k =-0.1250 0.1250-0.3750 (   733 PWs)   bands (ev):

    34.4065  39.0129  43.9468  43.9554  51.8162  51.8242  54.8800  54.8840
    55.6923  61.5166

          k = 0.1250-0.1250-0.3750 (   733 PWs)   bands (ev):

    34.4065  39.0129  43.9468  43.9555  51.8162  51.8241  54.8800  54.8840
    55.6925  61.5165

          k = 0.3750-0.1250 0.1250 (   733 PWs)   bands (ev):

    34.4065  39.0128  43.9468  43.9555  51.8161  51.8241  54.8801  54.8842
    55.6925  61.5168

          k =-0.3750-0.1250-0.1250 (   733 PWs)   bands (ev):

    34.4065  39.0127  43.9431  43.9592  51.8130  51.8276  54.8779  54.8853
    55.6931  61.5168

          k = 0.3750 0.1250-0.1250 (   733 PWs)   bands (ev):

    34.4065  39.0128  43.9468  43.9555  51.8160  51.8240  54.8801  54.8842
    55.6925  61.5168

          k =-0.3750 0.1250 0.1250 (   733 PWs)   bands (ev):

    34.4065  39.0128  43.9431  43.9591  51.8130  51.8277  54.8780  54.8854
    55.6927  61.5168

          k =-0.1250 0.3750 0.1250 (   733 PWs)   bands (ev):

    34.4065  39.0127  43.9501  43.9525  51.8191  51.8214  54.8813  54.8824
    55.6924  61.5167

          k =-0.1250-0.3750-0.1250 (   733 PWs)   bands (ev):

    34.4065  39.0127  43.9466  43.9560  51.8158  51.8244  54.8798  54.8841
    55.6925  61.5168

          k = 0.1250 0.3750-0.1250 (   733 PWs)   bands (ev):

    34.4065  39.0127  43.9501  43.9525  51.8191  51.8213  54.8812  54.8824
    55.6927  61.5167

          k = 0.1250-0.3750 0.1250 (   733 PWs)   bands (ev):

    34.4065  39.0127  43.9466  43.9560  51.8159  51.8245  54.8798  54.8841
    55.6924  61.5167

          k =-0.1250-0.3750 0.3750 (   723 PWs)   bands (ev):

    37.4217  41.6650  41.6851  44.5484  50.4941  52.9176  52.9444  57.0459
    57.5692  60.7343

          k =-0.1250 0.3750-0.3750 (   723 PWs)   bands (ev):

    37.4217  41.6650  41.6851  44.5484  50.4940  52.9176  52.9444  57.0455
    57.5696  60.7359

          k = 0.1250-0.3750-0.3750 (   723 PWs)   bands (ev):

    37.4217  41.6565  41.6935  44.5486  50.4939  52.9065  52.9556  57.0462
    57.5685  60.7340

          k = 0.3750 0.1250-0.3750 (   723 PWs)   bands (ev):

    37.4217  41.6722  41.6778  44.5484  50.4939  52.9275  52.9349  57.0466
    57.5685  60.7361

          k =-0.3750-0.1250-0.3750 (   723 PWs)   bands (ev):

    37.4217  41.6642  41.6859  44.5483  50.4941  52.9168  52.9456  57.0468
    57.5681  60.7342

          k = 0.3750-0.1250 0.3750 (   723 PWs)   bands (ev):

    37.4217  41.6642  41.6859  44.5484  50.4940  52.9167  52.9455  57.0469
    57.5682  60.7360

          k =-0.3750 0.1250 0.3750 (   723 PWs)   bands (ev):

    37.4217  41.6722  41.6778  44.5484  50.4940  52.9275  52.9349  57.0462
    57.5685  60.7366

          k = 0.3750-0.3750 0.1250 (   723 PWs)   bands (ev):

    37.4218  41.6651  41.6849  44.5485  50.4937  52.9177  52.9443  57.0468
    57.5683  60.7362

          k =-0.3750-0.3750-0.1250 (   723 PWs)   bands (ev):

    37.4218  41.6533  41.6967  44.5484  50.4941  52.9022  52.9599  57.0447
    57.5702  60.7314

          k = 0.3750 0.3750-0.1250 (   723 PWs)   bands (ev):

    37.4218  41.6534  41.6967  44.5484  50.4939  52.9021  52.9598  57.0469
    57.5682  60.7314

          k =-0.3750 0.3750 0.1250 (   723 PWs)   bands (ev):

    37.4218  41.6651  41.6849  44.5485  50.4940  52.9179  52.9444  57.0422
    57.5728  60.7380

          k =-0.3750-0.3750 0.3750 (   717 PWs)   bands (ev):

    39.8873  43.9840  44.0141  44.0438  47.7836  47.8163  47.8491  51.6505
    66.9731  66.9761

          k =-0.3750 0.3750-0.3750 (   717 PWs)   bands (ev):

    39.8873  43.9917  44.0140  44.0360  47.7920  47.8163  47.8406  51.6505
    66.9740  66.9770

          k = 0.3750-0.3750-0.3750 (   717 PWs)   bands (ev):

    39.8873  43.9876  44.0140  44.0402  47.7876  47.8164  47.8452  51.6504
    66.9737  66.9778

     the Fermi energy is    52.6611 ev

!    total energy              =    -141.24281803 Ry
     Harris-Foulkes estimate   =    -141.24281838 Ry
     estimated scf accuracy    <       0.00000089 Ry

     total all-electron energy =     -1925.813940 Ry

     The total energy is the sum of the following terms:

     one-electron contribution =      58.67252442 Ry
     hartree contribution      =       0.21194781 Ry
     xc contribution           =     -17.28509665 Ry
     ewald contribution        =     -40.85514762 Ry
     one-center paw contrib.   =    -141.98641505 Ry
     smearing contrib. (-TS)   =      -0.00063093 Ry

     convergence has been achieved in  11 iterations

     Forces acting on atoms (cartesian axes, Ry/au):

     atom    1 type  1   force =     0.00201846   -0.00041640    0.01639008
     atom    2 type  1   force =    -0.00327015    0.00368833    0.01636180
     atom    3 type  1   force =    -0.00056484   -0.00064360   -0.01727928
     atom    4 type  1   force =     0.00181654   -0.00262834   -0.01547259

     Total force =     0.033374     Total SCF correction =     0.000015


     Computing stress (Cartesian axis) and pressure

          total   stress  (Ry/bohr**3)                   (kbar)     P=59673.20
   0.40565568   0.00000109   0.00000095      59674.00      0.16      0.14
   0.00000109   0.40564429  -0.00000080          0.16  59672.33     -0.12
   0.00000095  -0.00000080   0.40565076          0.14     -0.12  59673.28


     Writing output data file fe_scf_fcc_2.save/

     init_run     :      2.93s CPU      2.99s WALL (       1 calls)
     electrons    :     17.65s CPU     17.79s WALL (       1 calls)
     forces       :      0.08s CPU      0.09s WALL (       1 calls)
     stress       :      0.24s CPU      0.24s WALL (       1 calls)

     Called by init_run:
     wfcinit      :      1.24s CPU      1.25s WALL (       1 calls)
     potinit      :      0.77s CPU      0.81s WALL (       1 calls)
     hinit0       :      0.89s CPU      0.89s WALL (       1 calls)

     Called by electrons:
     c_bands      :     11.46s CPU     11.56s WALL (      11 calls)
     sum_band     :      2.02s CPU      2.04s WALL (      11 calls)
     v_of_rho     :      0.26s CPU      0.26s WALL (      12 calls)
     newd         :      0.16s CPU      0.17s WALL (      12 calls)
     PAW_pot      :      4.49s CPU      4.54s WALL (      12 calls)
     mix_rho      :      0.03s CPU      0.03s WALL (      11 calls)

     Called by c_bands:
     init_us_2    :      0.30s CPU      0.32s WALL (     800 calls)
     cegterg      :     11.00s CPU     11.10s WALL (     352 calls)

     Called by sum_band:
     sum_band:bec :      0.01s CPU      0.01s WALL (     352 calls)
     addusdens    :      0.08s CPU      0.10s WALL (      11 calls)

     Called by *egterg:
     h_psi        :     10.54s CPU     10.50s WALL (    1140 calls)
     s_psi        :      0.26s CPU      0.33s WALL (    1140 calls)
     g_psi        :      0.06s CPU      0.05s WALL (     756 calls)
     cdiaghg      :      0.38s CPU      0.39s WALL (    1108 calls)

     Called by h_psi:
     h_psi:pot    :     10.51s CPU     10.46s WALL (    1140 calls)
     h_psi:calbec :      0.34s CPU      0.37s WALL (    1140 calls)
     vloc_psi     :      9.75s CPU      9.71s WALL (    1140 calls)
     add_vuspsi   :      0.40s CPU      0.37s WALL (    1140 calls)

     General routines
     calbec       :      0.48s CPU      0.51s WALL (    1652 calls)
     fft          :      0.17s CPU      0.18s WALL (     158 calls)
     ffts         :      0.02s CPU      0.01s WALL (      11 calls)
     fftw         :     10.48s CPU     10.50s WALL (   22332 calls)

     Parallel routines

     PWSCF        :    21.68s CPU        21.91s WALL


   This run was terminated on:   3: 5: 0  20Oct2019            

=------------------------------------------------------------------------------=
   JOB DONE.
=------------------------------------------------------------------------------=
