
     Program PWSCF v.6.3 starts on 20Oct2019 at  2:51:53 

     This program is part of the open-source Quantum ESPRESSO suite
     for quantum simulation of materials; please cite
         "P. Giannozzi et al., J. Phys.:Condens. Matter 21 395502 (2009);
         "P. Giannozzi et al., J. Phys.:Condens. Matter 29 465901 (2017);
          URL http://www.quantum-espresso.org", 
     in publications or presentations arising from this work. More details at
     http://www.quantum-espresso.org/quote

     Parallel version (MPI), running on     1 processors

     MPI processes distributed on     1 nodes
     Reading input from /cloud/Code/python/py_pwscf_converge/src/example/wd/runpwscf/file_10114.in
Warning: card &IONS ignored
Warning: card ION_DYNAMICS = 'BFGS', ignored
Warning: card / ignored
Warning: card &CELL ignored
Warning: card CELL_DYNAMICS = 'BFGS', ignored
Warning: card CELL_FACTOR = 2.0, ignored
Warning: card PRESS = 0.0, ignored
Warning: card / ignored

     Current dimensions of program PWSCF are:
     Max number of different atomic species (ntypx) = 10
     Max number of k-points (npk) =  40000
     Max angular momentum in pseudopotentials (lmaxx) =  3
               file Al.pbe-nl-kjpaw_psl.1.0.0.UPF: wavefunction(s)  3S 3P renormalized

     Subspace diagonalization in iterative solution of the eigenvalue problem:
     a serial algorithm will be used


     G-vector sticks info
     --------------------
     sticks:   dense  smooth     PW     G-vecs:    dense   smooth      PW
     Sum         305     149     57                 4139     1419     305



     bravais-lattice index     =            0
     lattice parameter (alat)  =       4.0400  a.u.
     unit-cell volume          =      65.9393 (a.u.)^3
     number of atoms/cell      =            4
     number of atomic types    =            1
     number of electrons       =        12.00
     number of Kohn-Sham states=           10
     kinetic-energy cutoff     =      30.0000  Ry
     charge density cutoff     =     240.0000  Ry
     convergence threshold     =      1.0E-06
     mixing beta               =       0.1000
     number of iterations used =           10  TF        mixing
     Exchange-correlation      = SLA PW PBX PBC ( 1  4  3  4 0 0)

     celldm(1)=   4.040000  celldm(2)=   0.000000  celldm(3)=   0.000000
     celldm(4)=   0.000000  celldm(5)=   0.000000  celldm(6)=   0.000000

     crystal axes: (cart. coord. in units of alat)
               a(1) = (   1.000000   0.000000   0.000000 )  
               a(2) = (   0.000000   1.000000   0.000000 )  
               a(3) = (   0.000000   0.000000   1.000000 )  

     reciprocal axes: (cart. coord. in units 2 pi/alat)
               b(1) = (  1.000000  0.000000  0.000000 )  
               b(2) = (  0.000000  1.000000  0.000000 )  
               b(3) = (  0.000000  0.000000  1.000000 )  


     PseudoPot. # 1 for Al read from file:
     /opt/pp/Al.pbe-nl-kjpaw_psl.1.0.0.UPF
     MD5 check sum: 1b67f78b73fe58c7924490f171ce8a1e
     Pseudo is Projector augmented-wave + core cor, Zval =  3.0
     Generated using "atomic" code by A. Dal Corso v.6.3
     Shape of augmentation charge: PSQ
     Using radial grid of 1135 points,  4 beta functions with: 
                l(1) =   0
                l(2) =   0
                l(3) =   1
                l(4) =   1
     Q(r) pseudized with 0 coefficients 


     atomic species   valence    mass     pseudopotential
        Al             3.00    26.98200     Al( 1.00)

     No symmetry found



   Cartesian axes

     site n.     atom                  positions (alat units)
         1           Al  tau(   1) = (  -0.0001235   0.0000359   0.0002572  )
         2           Al  tau(   2) = (   0.5003009   0.4992819   0.0002658  )
         3           Al  tau(   3) = (   0.4996490   0.0001153   0.5011170  )
         4           Al  tau(   4) = (  -0.0000756   0.5008267   0.5006943  )

     number of k points=    32  Marzari-Vanderbilt smearing, width (Ry)=  0.0200
                       cart. coord. in units 2pi/alat
        k(    1) = (   0.1250000   0.1250000   0.1250000), wk =   0.0625000
        k(    2) = (   0.1250000   0.1250000   0.3750000), wk =   0.0625000
        k(    3) = (   0.1250000   0.3750000   0.3750000), wk =   0.0625000
        k(    4) = (   0.3750000   0.3750000   0.3750000), wk =   0.0625000
        k(    5) = (  -0.1250000  -0.1250000   0.1250000), wk =   0.0625000
        k(    6) = (  -0.1250000   0.1250000  -0.1250000), wk =   0.0625000
        k(    7) = (   0.1250000  -0.1250000  -0.1250000), wk =   0.0625000
        k(    8) = (  -0.1250000  -0.1250000   0.3750000), wk =   0.0625000
        k(    9) = (  -0.1250000   0.1250000  -0.3750000), wk =   0.0625000
        k(   10) = (   0.1250000  -0.1250000  -0.3750000), wk =   0.0625000
        k(   11) = (   0.3750000  -0.1250000   0.1250000), wk =   0.0625000
        k(   12) = (  -0.3750000  -0.1250000  -0.1250000), wk =   0.0625000
        k(   13) = (   0.3750000   0.1250000  -0.1250000), wk =   0.0625000
        k(   14) = (  -0.3750000   0.1250000   0.1250000), wk =   0.0625000
        k(   15) = (  -0.1250000   0.3750000   0.1250000), wk =   0.0625000
        k(   16) = (  -0.1250000  -0.3750000  -0.1250000), wk =   0.0625000
        k(   17) = (   0.1250000   0.3750000  -0.1250000), wk =   0.0625000
        k(   18) = (   0.1250000  -0.3750000   0.1250000), wk =   0.0625000
        k(   19) = (  -0.1250000  -0.3750000   0.3750000), wk =   0.0625000
        k(   20) = (  -0.1250000   0.3750000  -0.3750000), wk =   0.0625000
        k(   21) = (   0.1250000  -0.3750000  -0.3750000), wk =   0.0625000
        k(   22) = (   0.3750000   0.1250000  -0.3750000), wk =   0.0625000
        k(   23) = (  -0.3750000  -0.1250000  -0.3750000), wk =   0.0625000
        k(   24) = (   0.3750000  -0.1250000   0.3750000), wk =   0.0625000
        k(   25) = (  -0.3750000   0.1250000   0.3750000), wk =   0.0625000
        k(   26) = (   0.3750000  -0.3750000   0.1250000), wk =   0.0625000
        k(   27) = (  -0.3750000  -0.3750000  -0.1250000), wk =   0.0625000
        k(   28) = (   0.3750000   0.3750000  -0.1250000), wk =   0.0625000
        k(   29) = (  -0.3750000   0.3750000   0.1250000), wk =   0.0625000
        k(   30) = (  -0.3750000  -0.3750000   0.3750000), wk =   0.0625000
        k(   31) = (  -0.3750000   0.3750000  -0.3750000), wk =   0.0625000
        k(   32) = (   0.3750000  -0.3750000  -0.3750000), wk =   0.0625000

     Dense  grid:     4139 G-vectors     FFT dimensions: (  20,  20,  20)

     Smooth grid:     1419 G-vectors     FFT dimensions: (  15,  15,  15)

     Estimated max dynamical RAM per process >       7.12 MB

     Initial potential from superposition of free atoms

     starting charge   11.99084, renormalised to   12.00000
     Starting wfcs are   16 randomized atomic wfcs
     Checking if some PAW data can be deallocated... 

     total cpu time spent up to now is        1.1 secs

     Self-consistent Calculation

     iteration #  1     ecut=    30.00 Ry     beta= 0.10
     Davidson diagonalization with overlap
     ethr =  1.00E-02,  avg # of iterations =  4.6

     total cpu time spent up to now is        1.6 secs

     total energy              =    -141.63479828 Ry
     Harris-Foulkes estimate   =    -141.78944337 Ry
     estimated scf accuracy    <       0.18075324 Ry

     iteration #  2     ecut=    30.00 Ry     beta= 0.10
     Davidson diagonalization with overlap
     ethr =  1.51E-03,  avg # of iterations =  1.0

     total cpu time spent up to now is        2.0 secs

     total energy              =    -141.14506954 Ry
     Harris-Foulkes estimate   =    -141.63836250 Ry
     estimated scf accuracy    <       0.15261896 Ry

     iteration #  3     ecut=    30.00 Ry     beta= 0.10
     Davidson diagonalization with overlap
     ethr =  1.27E-03,  avg # of iterations =  2.0

     total cpu time spent up to now is        2.3 secs

     total energy              =    -141.22482625 Ry
     Harris-Foulkes estimate   =    -141.24345786 Ry
     estimated scf accuracy    <       0.01640092 Ry

     iteration #  4     ecut=    30.00 Ry     beta= 0.10
     Davidson diagonalization with overlap
     ethr =  1.37E-04,  avg # of iterations =  1.1

     total cpu time spent up to now is        3.2 secs

     total energy              =    -141.22398164 Ry
     Harris-Foulkes estimate   =    -141.22547281 Ry
     estimated scf accuracy    <       0.01242572 Ry

     iteration #  5     ecut=    30.00 Ry     beta= 0.10
     Davidson diagonalization with overlap
     ethr =  1.04E-04,  avg # of iterations =  1.0

     total cpu time spent up to now is        4.3 secs

     total energy              =    -141.22636733 Ry
     Harris-Foulkes estimate   =    -141.22518387 Ry
     estimated scf accuracy    <       0.00039924 Ry

     iteration #  6     ecut=    30.00 Ry     beta= 0.10
     Davidson diagonalization with overlap
     ethr =  3.33E-06,  avg # of iterations =  2.9

     total cpu time spent up to now is        5.5 secs

     total energy              =    -141.22618967 Ry
     Harris-Foulkes estimate   =    -141.22655937 Ry
     estimated scf accuracy    <       0.00004822 Ry

     iteration #  7     ecut=    30.00 Ry     beta= 0.10
     Davidson diagonalization with overlap
     ethr =  4.02E-07,  avg # of iterations =  1.0

     total cpu time spent up to now is        6.6 secs

     total energy              =    -141.22507267 Ry
     Harris-Foulkes estimate   =    -141.22619219 Ry
     estimated scf accuracy    <       0.00004287 Ry

     iteration #  8     ecut=    30.00 Ry     beta= 0.10
     Davidson diagonalization with overlap
     ethr =  3.57E-07,  avg # of iterations =  3.0

     total cpu time spent up to now is        7.8 secs

     total energy              =    -141.22518979 Ry
     Harris-Foulkes estimate   =    -141.22514513 Ry
     estimated scf accuracy    <       0.00000611 Ry

     iteration #  9     ecut=    30.00 Ry     beta= 0.10
     Davidson diagonalization with overlap
     ethr =  5.09E-08,  avg # of iterations =  2.0

     total cpu time spent up to now is        8.9 secs

     total energy              =    -141.22507956 Ry
     Harris-Foulkes estimate   =    -141.22519080 Ry
     estimated scf accuracy    <       0.00000919 Ry

     iteration # 10     ecut=    30.00 Ry     beta= 0.10
     Davidson diagonalization with overlap
     ethr =  5.09E-08,  avg # of iterations =  3.0

     total cpu time spent up to now is       10.2 secs

     End of self-consistent calculation

          k = 0.1250 0.1250 0.1250 (   181 PWs)   bands (ev):

    30.9187  41.4627  41.4818  41.5006  52.4647  52.4851  52.5052  54.9522
    54.9621  54.9721

          k = 0.1250 0.1250 0.3750 (   185 PWs)   bands (ev):

    34.4117  39.0176  43.9678  43.9867  51.8384  51.8557  54.9055  54.9142
    55.7189  61.5444

          k = 0.1250 0.3750 0.3750 (   181 PWs)   bands (ev):

    37.4267  41.6711  41.7081  44.5693  50.5193  52.9456  52.9948  57.0903
    57.6076  60.7730

          k = 0.3750 0.3750 0.3750 (   178 PWs)   bands (ev):

    39.8920  43.9976  44.0355  44.0731  47.8100  47.8515  47.8928  51.6822
    67.0134  67.0161

          k =-0.1250-0.1250 0.1250 (   181 PWs)   bands (ev):

    30.9187  41.4667  41.4817  41.4966  52.4690  52.4849  52.5010  54.9543
    54.9621  54.9700

          k =-0.1250 0.1250-0.1250 (   181 PWs)   bands (ev):

    30.9187  41.4705  41.4818  41.4927  52.4731  52.4851  52.4968  54.9563
    54.9621  54.9680

          k = 0.1250-0.1250-0.1250 (   181 PWs)   bands (ev):

    30.9187  41.4685  41.4818  41.4948  52.4709  52.4850  52.4990  54.9552
    54.9621  54.9690

          k =-0.1250-0.1250 0.3750 (   185 PWs)   bands (ev):

    34.4117  39.0177  43.9677  43.9867  51.8385  51.8558  54.9056  54.9142
    55.7186  61.5446

          k =-0.1250 0.1250-0.3750 (   185 PWs)   bands (ev):

    34.4117  39.0176  43.9729  43.9816  51.8431  51.8510  54.9079  54.9119
    55.7187  61.5444

          k = 0.1250-0.1250-0.3750 (   185 PWs)   bands (ev):

    34.4117  39.0176  43.9729  43.9816  51.8431  51.8510  54.9079  54.9119
    55.7189  61.5441

          k = 0.3750-0.1250 0.1250 (   185 PWs)   bands (ev):

    34.4118  39.0175  43.9729  43.9817  51.8429  51.8509  54.9080  54.9121
    55.7188  61.5446

          k =-0.3750-0.1250-0.1250 (   185 PWs)   bands (ev):

    34.4118  39.0175  43.9692  43.9853  51.8398  51.8545  54.9059  54.9132
    55.7194  61.5447

          k = 0.3750 0.1250-0.1250 (   185 PWs)   bands (ev):

    34.4118  39.0175  43.9729  43.9817  51.8429  51.8509  54.9081  54.9121
    55.7189  61.5445

          k =-0.3750 0.1250 0.1250 (   185 PWs)   bands (ev):

    34.4118  39.0175  43.9692  43.9853  51.8399  51.8546  54.9059  54.9133
    55.7191  61.5446

          k =-0.1250 0.3750 0.1250 (   185 PWs)   bands (ev):

    34.4118  39.0174  43.9762  43.9786  51.8460  51.8482  54.9092  54.9104
    55.7188  61.5445

          k =-0.1250-0.3750-0.1250 (   185 PWs)   bands (ev):

    34.4118  39.0174  43.9727  43.9822  51.8427  51.8513  54.9077  54.9120
    55.7189  61.5447

          k = 0.1250 0.3750-0.1250 (   185 PWs)   bands (ev):

    34.4118  39.0174  43.9762  43.9786  51.8459  51.8482  54.9091  54.9103
    55.7191  61.5446

          k = 0.1250-0.3750 0.1250 (   185 PWs)   bands (ev):

    34.4117  39.0175  43.9727  43.9821  51.8427  51.8514  54.9077  54.9120
    55.7187  61.5446

          k =-0.1250-0.3750 0.3750 (   181 PWs)   bands (ev):

    37.4266  41.6796  41.6998  44.5691  50.5194  52.9567  52.9835  57.0896
    57.6085  60.7738

          k =-0.1250 0.3750-0.3750 (   181 PWs)   bands (ev):

    37.4266  41.6796  41.6998  44.5691  50.5194  52.9566  52.9835  57.0892
    57.6090  60.7728

          k = 0.1250-0.3750-0.3750 (   181 PWs)   bands (ev):

    37.4267  41.6712  41.7081  44.5693  50.5193  52.9456  52.9948  57.0898
    57.6079  60.7753

          k = 0.3750 0.1250-0.3750 (   181 PWs)   bands (ev):

    37.4267  41.6868  41.6924  44.5692  50.5192  52.9665  52.9740  57.0903
    57.6078  60.7755

          k =-0.3750-0.1250-0.3750 (   181 PWs)   bands (ev):

    37.4267  41.6788  41.7005  44.5690  50.5195  52.9558  52.9847  57.0905
    57.6074  60.7721

          k = 0.3750-0.1250 0.3750 (   181 PWs)   bands (ev):

    37.4266  41.6788  41.7005  44.5691  50.5193  52.9557  52.9846  57.0906
    57.6075  60.7727

          k =-0.3750 0.1250 0.3750 (   181 PWs)   bands (ev):

    37.4266  41.6868  41.6924  44.5691  50.5194  52.9666  52.9740  57.0899
    57.6078  60.7748

          k = 0.3750-0.3750 0.1250 (   181 PWs)   bands (ev):

    37.4267  41.6797  41.6996  44.5692  50.5191  52.9568  52.9834  57.0905
    57.6076  60.7730

          k =-0.3750-0.3750-0.1250 (   181 PWs)   bands (ev):

    37.4267  41.6680  41.7113  44.5691  50.5195  52.9411  52.9991  57.0884
    57.6096  60.7698

          k = 0.3750 0.3750-0.1250 (   181 PWs)   bands (ev):

    37.4267  41.6680  41.7114  44.5691  50.5193  52.9411  52.9990  57.0906
    57.6075  60.7698

          k =-0.3750 0.3750 0.1250 (   181 PWs)   bands (ev):

    37.4267  41.6797  41.6995  44.5692  50.5194  52.9569  52.9835  57.0859
    57.6121  60.7744

          k =-0.3750-0.3750 0.3750 (   178 PWs)   bands (ev):

    39.8919  44.0055  44.0355  44.0652  47.8187  47.8513  47.8841  51.6823
    67.0120  67.0170

          k =-0.3750 0.3750-0.3750 (   178 PWs)   bands (ev):

    39.8919  44.0132  44.0355  44.0574  47.8272  47.8514  47.8756  51.6824
    67.0129  67.0162

          k = 0.3750-0.3750-0.3750 (   178 PWs)   bands (ev):

    39.8919  44.0091  44.0354  44.0615  47.8228  47.8514  47.8802  51.6822
    67.0137  67.0151

     the Fermi energy is    52.6978 ev

!    total energy              =    -141.22508982 Ry
     Harris-Foulkes estimate   =    -141.22509006 Ry
     estimated scf accuracy    <       0.00000094 Ry

     total all-electron energy =     -1925.796212 Ry

     The total energy is the sum of the following terms:

     one-electron contribution =      58.69400549 Ry
     hartree contribution      =       0.21137428 Ry
     xc contribution           =     -17.28387235 Ry
     ewald contribution        =     -40.85514763 Ry
     one-center paw contrib.   =    -141.99085764 Ry
     smearing contrib. (-TS)   =      -0.00059198 Ry

     convergence has been achieved in  10 iterations

     Forces acting on atoms (cartesian axes, Ry/au):

     atom    1 type  1   force =     0.00202058   -0.00044040    0.01657848
     atom    2 type  1   force =    -0.00334109    0.00386620    0.01654312
     atom    3 type  1   force =    -0.00049548   -0.00065999   -0.01751471
     atom    4 type  1   force =     0.00181599   -0.00276581   -0.01560689

     Total force =     0.033777     Total SCF correction =     0.000016


     Computing stress (Cartesian axis) and pressure

          total   stress  (Ry/bohr**3)                   (kbar)     P=59553.98
   0.40484532   0.00000114   0.00000090      59554.79      0.17      0.13
   0.00000114   0.40483418  -0.00000115          0.17  59553.15     -0.17
   0.00000090  -0.00000115   0.40483995          0.13     -0.17  59554.00


     Writing output data file fe_scf_fcc_2.save/

     init_run     :      0.54s CPU      0.56s WALL (       1 calls)
     electrons    :      8.96s CPU      9.10s WALL (       1 calls)
     forces       :      0.12s CPU      0.12s WALL (       1 calls)
     stress       :      0.26s CPU      0.27s WALL (       1 calls)

     Called by init_run:
     wfcinit      :      0.06s CPU      0.07s WALL (       1 calls)
     potinit      :      0.26s CPU      0.27s WALL (       1 calls)
     hinit0       :      0.21s CPU      0.21s WALL (       1 calls)

     Called by electrons:
     c_bands      :      2.37s CPU      2.44s WALL (      10 calls)
     sum_band     :      0.40s CPU      0.43s WALL (      10 calls)
     v_of_rho     :      0.14s CPU      0.14s WALL (      11 calls)
     newd         :      0.16s CPU      0.15s WALL (      11 calls)
     PAW_pot      :      6.14s CPU      6.18s WALL (      11 calls)
     mix_rho      :      0.02s CPU      0.01s WALL (      10 calls)

     Called by c_bands:
     init_us_2    :      0.09s CPU      0.12s WALL (     736 calls)
     cegterg      :      2.23s CPU      2.28s WALL (     320 calls)

     Called by sum_band:
     sum_band:bec :      0.00s CPU      0.01s WALL (     320 calls)
     addusdens    :      0.08s CPU      0.09s WALL (      10 calls)

     Called by *egterg:
     h_psi        :      1.36s CPU      1.46s WALL (    1042 calls)
     s_psi        :      0.10s CPU      0.12s WALL (    1042 calls)
     g_psi        :      0.02s CPU      0.02s WALL (     690 calls)
     cdiaghg      :      0.45s CPU      0.43s WALL (    1010 calls)

     Called by h_psi:
     h_psi:pot    :      1.36s CPU      1.45s WALL (    1042 calls)
     h_psi:calbec :      0.15s CPU      0.11s WALL (    1042 calls)
     vloc_psi     :      1.11s CPU      1.21s WALL (    1042 calls)
     add_vuspsi   :      0.10s CPU      0.12s WALL (    1042 calls)

     General routines
     calbec       :      0.21s CPU      0.17s WALL (    1522 calls)
     fft          :      0.03s CPU      0.04s WALL (     167 calls)
     ffts         :      0.00s CPU      0.00s WALL (      21 calls)
     fftw         :      1.08s CPU      1.17s WALL (   20786 calls)
     interpolate  :      0.00s CPU      0.00s WALL (      11 calls)

     Parallel routines

     PWSCF        :    10.41s CPU        10.59s WALL


   This run was terminated on:   2:52: 4  20Oct2019            

=------------------------------------------------------------------------------=
   JOB DONE.
=------------------------------------------------------------------------------=
