
     Program PWSCF v.6.3 starts on 20Oct2019 at  2:54:20 

     This program is part of the open-source Quantum ESPRESSO suite
     for quantum simulation of materials; please cite
         "P. Giannozzi et al., J. Phys.:Condens. Matter 21 395502 (2009);
         "P. Giannozzi et al., J. Phys.:Condens. Matter 29 465901 (2017);
          URL http://www.quantum-espresso.org", 
     in publications or presentations arising from this work. More details at
     http://www.quantum-espresso.org/quote

     Parallel version (MPI), running on     1 processors

     MPI processes distributed on     1 nodes
     Reading input from /cloud/Code/python/py_pwscf_converge/src/example/wd/runpwscf/file_10129.in
Warning: card &IONS ignored
Warning: card ION_DYNAMICS = 'BFGS', ignored
Warning: card / ignored
Warning: card &CELL ignored
Warning: card CELL_DYNAMICS = 'BFGS', ignored
Warning: card CELL_FACTOR = 2.0, ignored
Warning: card PRESS = 0.0, ignored
Warning: card / ignored

     Current dimensions of program PWSCF are:
     Max number of different atomic species (ntypx) = 10
     Max number of k-points (npk) =  40000
     Max angular momentum in pseudopotentials (lmaxx) =  3
               file Al.pbe-nl-kjpaw_psl.1.0.0.UPF: wavefunction(s)  3S 3P renormalized

     Subspace diagonalization in iterative solution of the eigenvalue problem:
     a serial algorithm will be used


     G-vector sticks info
     --------------------
     sticks:   dense  smooth     PW     G-vecs:    dense   smooth      PW
     Sum         341     137     45                 4697     1141     251



     bravais-lattice index     =            0
     lattice parameter (alat)  =       4.0400  a.u.
     unit-cell volume          =      65.9393 (a.u.)^3
     number of atoms/cell      =            4
     number of atomic types    =            1
     number of electrons       =        12.00
     number of Kohn-Sham states=           10
     kinetic-energy cutoff     =      25.0000  Ry
     charge density cutoff     =     260.0000  Ry
     convergence threshold     =      1.0E-06
     mixing beta               =       0.1000
     number of iterations used =           10  TF        mixing
     Exchange-correlation      = SLA PW PBX PBC ( 1  4  3  4 0 0)

     celldm(1)=   4.040000  celldm(2)=   0.000000  celldm(3)=   0.000000
     celldm(4)=   0.000000  celldm(5)=   0.000000  celldm(6)=   0.000000

     crystal axes: (cart. coord. in units of alat)
               a(1) = (   1.000000   0.000000   0.000000 )  
               a(2) = (   0.000000   1.000000   0.000000 )  
               a(3) = (   0.000000   0.000000   1.000000 )  

     reciprocal axes: (cart. coord. in units 2 pi/alat)
               b(1) = (  1.000000  0.000000  0.000000 )  
               b(2) = (  0.000000  1.000000  0.000000 )  
               b(3) = (  0.000000  0.000000  1.000000 )  


     PseudoPot. # 1 for Al read from file:
     /opt/pp/Al.pbe-nl-kjpaw_psl.1.0.0.UPF
     MD5 check sum: 1b67f78b73fe58c7924490f171ce8a1e
     Pseudo is Projector augmented-wave + core cor, Zval =  3.0
     Generated using "atomic" code by A. Dal Corso v.6.3
     Shape of augmentation charge: PSQ
     Using radial grid of 1135 points,  4 beta functions with: 
                l(1) =   0
                l(2) =   0
                l(3) =   1
                l(4) =   1
     Q(r) pseudized with 0 coefficients 


     atomic species   valence    mass     pseudopotential
        Al             3.00    26.98200     Al( 1.00)

     No symmetry found



   Cartesian axes

     site n.     atom                  positions (alat units)
         1           Al  tau(   1) = (  -0.0001235   0.0000359   0.0002572  )
         2           Al  tau(   2) = (   0.5003009   0.4992819   0.0002658  )
         3           Al  tau(   3) = (   0.4996490   0.0001153   0.5011170  )
         4           Al  tau(   4) = (  -0.0000756   0.5008267   0.5006943  )

     number of k points=    32  Marzari-Vanderbilt smearing, width (Ry)=  0.0200
                       cart. coord. in units 2pi/alat
        k(    1) = (   0.1250000   0.1250000   0.1250000), wk =   0.0625000
        k(    2) = (   0.1250000   0.1250000   0.3750000), wk =   0.0625000
        k(    3) = (   0.1250000   0.3750000   0.3750000), wk =   0.0625000
        k(    4) = (   0.3750000   0.3750000   0.3750000), wk =   0.0625000
        k(    5) = (  -0.1250000  -0.1250000   0.1250000), wk =   0.0625000
        k(    6) = (  -0.1250000   0.1250000  -0.1250000), wk =   0.0625000
        k(    7) = (   0.1250000  -0.1250000  -0.1250000), wk =   0.0625000
        k(    8) = (  -0.1250000  -0.1250000   0.3750000), wk =   0.0625000
        k(    9) = (  -0.1250000   0.1250000  -0.3750000), wk =   0.0625000
        k(   10) = (   0.1250000  -0.1250000  -0.3750000), wk =   0.0625000
        k(   11) = (   0.3750000  -0.1250000   0.1250000), wk =   0.0625000
        k(   12) = (  -0.3750000  -0.1250000  -0.1250000), wk =   0.0625000
        k(   13) = (   0.3750000   0.1250000  -0.1250000), wk =   0.0625000
        k(   14) = (  -0.3750000   0.1250000   0.1250000), wk =   0.0625000
        k(   15) = (  -0.1250000   0.3750000   0.1250000), wk =   0.0625000
        k(   16) = (  -0.1250000  -0.3750000  -0.1250000), wk =   0.0625000
        k(   17) = (   0.1250000   0.3750000  -0.1250000), wk =   0.0625000
        k(   18) = (   0.1250000  -0.3750000   0.1250000), wk =   0.0625000
        k(   19) = (  -0.1250000  -0.3750000   0.3750000), wk =   0.0625000
        k(   20) = (  -0.1250000   0.3750000  -0.3750000), wk =   0.0625000
        k(   21) = (   0.1250000  -0.3750000  -0.3750000), wk =   0.0625000
        k(   22) = (   0.3750000   0.1250000  -0.3750000), wk =   0.0625000
        k(   23) = (  -0.3750000  -0.1250000  -0.3750000), wk =   0.0625000
        k(   24) = (   0.3750000  -0.1250000   0.3750000), wk =   0.0625000
        k(   25) = (  -0.3750000   0.1250000   0.3750000), wk =   0.0625000
        k(   26) = (   0.3750000  -0.3750000   0.1250000), wk =   0.0625000
        k(   27) = (  -0.3750000  -0.3750000  -0.1250000), wk =   0.0625000
        k(   28) = (   0.3750000   0.3750000  -0.1250000), wk =   0.0625000
        k(   29) = (  -0.3750000   0.3750000   0.1250000), wk =   0.0625000
        k(   30) = (  -0.3750000  -0.3750000   0.3750000), wk =   0.0625000
        k(   31) = (  -0.3750000   0.3750000  -0.3750000), wk =   0.0625000
        k(   32) = (   0.3750000  -0.3750000  -0.3750000), wk =   0.0625000

     Dense  grid:     4697 G-vectors     FFT dimensions: (  24,  24,  24)

     Smooth grid:     1141 G-vectors     FFT dimensions: (  15,  15,  15)

     Estimated max dynamical RAM per process >       8.01 MB

     Initial potential from superposition of free atoms

     starting charge   11.99084, renormalised to   12.00000
     Starting wfcs are   16 randomized atomic wfcs
     Checking if some PAW data can be deallocated... 

     total cpu time spent up to now is        3.2 secs

     Self-consistent Calculation

     iteration #  1     ecut=    25.00 Ry     beta= 0.10
     Davidson diagonalization with overlap
     ethr =  1.00E-02,  avg # of iterations =  4.9

     total cpu time spent up to now is        4.7 secs

     total energy              =    -141.59678243 Ry
     Harris-Foulkes estimate   =    -141.75246192 Ry
     estimated scf accuracy    <       0.18305281 Ry

     iteration #  2     ecut=    25.00 Ry     beta= 0.10
     Davidson diagonalization with overlap
     ethr =  1.53E-03,  avg # of iterations =  1.0

     total cpu time spent up to now is        5.7 secs

     total energy              =    -141.10414242 Ry
     Harris-Foulkes estimate   =    -141.60027588 Ry
     estimated scf accuracy    <       0.15414317 Ry

     iteration #  3     ecut=    25.00 Ry     beta= 0.10
     Davidson diagonalization with overlap
     ethr =  1.28E-03,  avg # of iterations =  2.0

     total cpu time spent up to now is        6.9 secs

     total energy              =    -141.18622195 Ry
     Harris-Foulkes estimate   =    -141.20264826 Ry
     estimated scf accuracy    <       0.01650147 Ry

     iteration #  4     ecut=    25.00 Ry     beta= 0.10
     Davidson diagonalization with overlap
     ethr =  1.38E-04,  avg # of iterations =  1.0

     total cpu time spent up to now is        7.9 secs

     total energy              =    -141.18493317 Ry
     Harris-Foulkes estimate   =    -141.18674724 Ry
     estimated scf accuracy    <       0.01282688 Ry

     iteration #  5     ecut=    25.00 Ry     beta= 0.10
     Davidson diagonalization with overlap
     ethr =  1.07E-04,  avg # of iterations =  1.0

     total cpu time spent up to now is        8.9 secs

     total energy              =    -141.18747989 Ry
     Harris-Foulkes estimate   =    -141.18615140 Ry
     estimated scf accuracy    <       0.00048076 Ry

     iteration #  6     ecut=    25.00 Ry     beta= 0.10
     Davidson diagonalization with overlap
     ethr =  4.01E-06,  avg # of iterations =  2.8

     total cpu time spent up to now is       10.2 secs

     total energy              =    -141.18736577 Ry
     Harris-Foulkes estimate   =    -141.18768782 Ry
     estimated scf accuracy    <       0.00005517 Ry

     iteration #  7     ecut=    25.00 Ry     beta= 0.10
     Davidson diagonalization with overlap
     ethr =  4.60E-07,  avg # of iterations =  1.3

     total cpu time spent up to now is       10.7 secs

     total energy              =    -141.18613531 Ry
     Harris-Foulkes estimate   =    -141.18736760 Ry
     estimated scf accuracy    <       0.00004731 Ry

     iteration #  8     ecut=    25.00 Ry     beta= 0.10
     Davidson diagonalization with overlap
     ethr =  3.94E-07,  avg # of iterations =  3.0

     total cpu time spent up to now is       11.1 secs

     total energy              =    -141.18621547 Ry
     Harris-Foulkes estimate   =    -141.18621508 Ry
     estimated scf accuracy    <       0.00000635 Ry

     iteration #  9     ecut=    25.00 Ry     beta= 0.10
     Davidson diagonalization with overlap
     ethr =  5.29E-08,  avg # of iterations =  1.0

     total cpu time spent up to now is       11.5 secs

     total energy              =    -141.18615871 Ry
     Harris-Foulkes estimate   =    -141.18621551 Ry
     estimated scf accuracy    <       0.00000636 Ry

     iteration # 10     ecut=    25.00 Ry     beta= 0.10
     Davidson diagonalization with overlap
     ethr =  5.29E-08,  avg # of iterations =  2.3

     total cpu time spent up to now is       11.9 secs

     total energy              =    -141.18615990 Ry
     Harris-Foulkes estimate   =    -141.18616282 Ry
     estimated scf accuracy    <       0.00000440 Ry

     iteration # 11     ecut=    25.00 Ry     beta= 0.10
     Davidson diagonalization with overlap
     ethr =  3.67E-08,  avg # of iterations =  1.1

     total cpu time spent up to now is       12.2 secs

     End of self-consistent calculation

          k = 0.1250 0.1250 0.1250 (   144 PWs)   bands (ev):

    30.9315  41.5198  41.5384  41.5567  52.5643  52.5848  52.6049  54.9728
    54.9831  54.9934

          k = 0.1250 0.1250 0.3750 (   138 PWs)   bands (ev):

    34.4221  39.0633  43.9987  44.0174  51.9433  51.9608  54.9732  54.9817
    55.8700  61.7712

          k = 0.1250 0.3750 0.3750 (   141 PWs)   bands (ev):

    37.4451  41.6914  41.7282  44.5873  50.5873  53.0480  53.0981  57.1531
    57.6913  60.8836

          k = 0.3750 0.3750 0.3750 (   145 PWs)   bands (ev):

    39.9358  44.0141  44.0518  44.0892  47.8478  47.8894  47.9309  51.7783
    67.2034  67.2080

          k =-0.1250-0.1250 0.1250 (   144 PWs)   bands (ev):

    30.9315  41.5237  41.5384  41.5528  52.5686  52.5845  52.6007  54.9750
    54.9831  54.9913

          k =-0.1250 0.1250-0.1250 (   144 PWs)   bands (ev):

    30.9315  41.5274  41.5385  41.5490  52.5727  52.5847  52.5964  54.9771
    54.9832  54.9892

          k = 0.1250-0.1250-0.1250 (   144 PWs)   bands (ev):

    30.9315  41.5254  41.5385  41.5510  52.5706  52.5846  52.5987  54.9760
    54.9830  54.9903

          k =-0.1250-0.1250 0.3750 (   138 PWs)   bands (ev):

    34.4221  39.0633  43.9987  44.0174  51.9433  51.9609  54.9732  54.9817
    55.8697  61.7712

          k =-0.1250 0.1250-0.3750 (   138 PWs)   bands (ev):

    34.4221  39.0633  44.0038  44.0123  51.9480  51.9561  54.9755  54.9794
    55.8698  61.7713

          k = 0.1250-0.1250-0.3750 (   138 PWs)   bands (ev):

    34.4221  39.0633  44.0038  44.0124  51.9480  51.9561  54.9755  54.9794
    55.8700  61.7707

          k = 0.3750-0.1250 0.1250 (   138 PWs)   bands (ev):

    34.4222  39.0632  44.0038  44.0124  51.9478  51.9560  54.9756  54.9796
    55.8699  61.7710

          k =-0.3750-0.1250-0.1250 (   138 PWs)   bands (ev):

    34.4222  39.0632  44.0002  44.0160  51.9447  51.9596  54.9735  54.9807
    55.8705  61.7712

          k = 0.3750 0.1250-0.1250 (   138 PWs)   bands (ev):

    34.4222  39.0632  44.0038  44.0124  51.9478  51.9559  54.9756  54.9796
    55.8700  61.7714

          k =-0.3750 0.1250 0.1250 (   138 PWs)   bands (ev):

    34.4222  39.0632  44.0001  44.0160  51.9447  51.9596  54.9736  54.9808
    55.8701  61.7712

          k =-0.1250 0.3750 0.1250 (   138 PWs)   bands (ev):

    34.4222  39.0631  44.0070  44.0094  51.9510  51.9532  54.9768  54.9779
    55.8699  61.7712

          k =-0.1250-0.3750-0.1250 (   138 PWs)   bands (ev):

    34.4222  39.0631  44.0036  44.0129  51.9476  51.9564  54.9753  54.9795
    55.8700  61.7714

          k = 0.1250 0.3750-0.1250 (   138 PWs)   bands (ev):

    34.4222  39.0631  44.0071  44.0094  51.9509  51.9532  54.9767  54.9778
    55.8702  61.7712

          k = 0.1250-0.3750 0.1250 (   138 PWs)   bands (ev):

    34.4222  39.0631  44.0036  44.0129  51.9476  51.9564  54.9753  54.9795
    55.8698  61.7712

          k =-0.1250-0.3750 0.3750 (   141 PWs)   bands (ev):

    37.4450  41.6998  41.7199  44.5872  50.5875  53.0593  53.0866  57.1525
    57.6922  60.8838

          k =-0.1250 0.3750-0.3750 (   141 PWs)   bands (ev):

    37.4450  41.6998  41.7199  44.5872  50.5874  53.0593  53.0866  57.1521
    57.6927  60.8853

          k = 0.1250-0.3750-0.3750 (   141 PWs)   bands (ev):

    37.4450  41.6914  41.7282  44.5873  50.5873  53.0480  53.0981  57.1527
    57.6916  60.8805

          k = 0.3750 0.1250-0.3750 (   141 PWs)   bands (ev):

    37.4450  41.7070  41.7125  44.5872  50.5873  53.0693  53.0769  57.1532
    57.6915  60.8854

          k =-0.3750-0.1250-0.3750 (   141 PWs)   bands (ev):

    37.4450  41.6990  41.7206  44.5871  50.5875  53.0584  53.0878  57.1533
    57.6912  60.8842

          k = 0.3750-0.1250 0.3750 (   141 PWs)   bands (ev):

    37.4450  41.6990  41.7206  44.5871  50.5874  53.0583  53.0877  57.1535
    57.6913  60.8872

          k =-0.3750 0.1250 0.3750 (   141 PWs)   bands (ev):

    37.4450  41.7070  41.7125  44.5872  50.5874  53.0694  53.0770  57.1528
    57.6915  60.8854

          k = 0.3750-0.3750 0.1250 (   141 PWs)   bands (ev):

    37.4451  41.6998  41.7197  44.5872  50.5871  53.0594  53.0865  57.1534
    57.6914  60.8847

          k =-0.3750-0.3750-0.1250 (   141 PWs)   bands (ev):

    37.4451  41.6882  41.7314  44.5871  50.5875  53.0435  53.1025  57.1513
    57.6933  60.8794

          k = 0.3750 0.3750-0.1250 (   141 PWs)   bands (ev):

    37.4451  41.6882  41.7315  44.5871  50.5873  53.0434  53.1024  57.1534
    57.6913  60.8811

          k =-0.3750 0.3750 0.1250 (   141 PWs)   bands (ev):

    37.4451  41.6998  41.7197  44.5872  50.5874  53.0595  53.0867  57.1488
    57.6958  60.8845

          k =-0.3750-0.3750 0.3750 (   145 PWs)   bands (ev):

    39.9357  44.0220  44.0518  44.0813  47.8566  47.8893  47.9222  51.7784
    67.2038  67.2086

          k =-0.3750 0.3750-0.3750 (   145 PWs)   bands (ev):

    39.9357  44.0296  44.0518  44.0736  47.8650  47.8894  47.9137  51.7785
    67.2043  67.2077

          k = 0.3750-0.3750-0.3750 (   145 PWs)   bands (ev):

    39.9357  44.0256  44.0517  44.0777  47.8607  47.8894  47.9183  51.7783
    67.2046  67.2077

     the Fermi energy is    52.7983 ev

!    total energy              =    -141.18615958 Ry
     Harris-Foulkes estimate   =    -141.18616052 Ry
     estimated scf accuracy    <       0.00000048 Ry

     total all-electron energy =     -1925.757282 Ry

     The total energy is the sum of the following terms:

     one-electron contribution =      58.74557493 Ry
     hartree contribution      =       0.21427169 Ry
     xc contribution           =     -17.28865111 Ry
     ewald contribution        =     -40.85514762 Ry
     one-center paw contrib.   =    -142.00166669 Ry
     smearing contrib. (-TS)   =      -0.00054077 Ry

     convergence has been achieved in  11 iterations

     Forces acting on atoms (cartesian axes, Ry/au):

     atom    1 type  1   force =     0.00201282   -0.00045772    0.01686075
     atom    2 type  1   force =    -0.00329765    0.00382062    0.01681801
     atom    3 type  1   force =    -0.00051590   -0.00068717   -0.01773791
     atom    4 type  1   force =     0.00180073   -0.00267574   -0.01594085

     Total force =     0.034304     Total SCF correction =     0.000022


     Computing stress (Cartesian axis) and pressure

          total   stress  (Ry/bohr**3)                   (kbar)     P=59562.34
   0.40490225   0.00000115   0.00000101      59563.17      0.17      0.15
   0.00000115   0.40489058  -0.00000107          0.17  59561.45     -0.16
   0.00000101  -0.00000107   0.40489709          0.15     -0.16  59562.41


     Writing output data file fe_scf_fcc_2.save/

     init_run     :      1.64s CPU      1.67s WALL (       1 calls)
     electrons    :      8.88s CPU      9.00s WALL (       1 calls)
     forces       :      0.05s CPU      0.05s WALL (       1 calls)
     stress       :      0.10s CPU      0.10s WALL (       1 calls)

     Called by init_run:
     wfcinit      :      0.16s CPU      0.17s WALL (       1 calls)
     potinit      :      0.78s CPU      0.81s WALL (       1 calls)
     hinit0       :      0.66s CPU      0.66s WALL (       1 calls)

     Called by electrons:
     c_bands      :      2.26s CPU      2.32s WALL (      11 calls)
     sum_band     :      0.45s CPU      0.46s WALL (      11 calls)
     v_of_rho     :      0.36s CPU      0.37s WALL (      12 calls)
     newd         :      0.20s CPU      0.19s WALL (      12 calls)
     PAW_pot      :      6.36s CPU      6.41s WALL (      12 calls)
     mix_rho      :      0.04s CPU      0.04s WALL (      11 calls)

     Called by c_bands:
     init_us_2    :      0.11s CPU      0.10s WALL (     800 calls)
     cegterg      :      2.12s CPU      2.18s WALL (     352 calls)

     Called by sum_band:
     sum_band:bec :      0.00s CPU      0.01s WALL (     352 calls)
     addusdens    :      0.11s CPU      0.11s WALL (      11 calls)

     Called by *egterg:
     h_psi        :      1.36s CPU      1.44s WALL (    1069 calls)
     s_psi        :      0.10s CPU      0.10s WALL (    1069 calls)
     g_psi        :      0.02s CPU      0.01s WALL (     685 calls)
     cdiaghg      :      0.48s CPU      0.48s WALL (    1037 calls)

     Called by h_psi:
     h_psi:pot    :      1.34s CPU      1.43s WALL (    1069 calls)
     h_psi:calbec :      0.09s CPU      0.10s WALL (    1069 calls)
     vloc_psi     :      1.16s CPU      1.21s WALL (    1069 calls)
     add_vuspsi   :      0.09s CPU      0.11s WALL (    1069 calls)

     General routines
     calbec       :      0.11s CPU      0.14s WALL (    1581 calls)
     fft          :      0.24s CPU      0.27s WALL (     180 calls)
     ffts         :      0.00s CPU      0.00s WALL (      23 calls)
     fftw         :      1.16s CPU      1.15s WALL (   22030 calls)
     interpolate  :      0.01s CPU      0.02s WALL (      12 calls)

     Parallel routines

     PWSCF        :    12.18s CPU        12.41s WALL


   This run was terminated on:   2:54:32  20Oct2019            

=------------------------------------------------------------------------------=
   JOB DONE.
=------------------------------------------------------------------------------=
