
     Program PWSCF v.6.3 starts on 20Oct2019 at  1: 8:35 

     This program is part of the open-source Quantum ESPRESSO suite
     for quantum simulation of materials; please cite
         "P. Giannozzi et al., J. Phys.:Condens. Matter 21 395502 (2009);
         "P. Giannozzi et al., J. Phys.:Condens. Matter 29 465901 (2017);
          URL http://www.quantum-espresso.org", 
     in publications or presentations arising from this work. More details at
     http://www.quantum-espresso.org/quote

     Parallel version (MPI), running on     1 processors

     MPI processes distributed on     1 nodes
     Reading input from /cloud/Code/python/py_pwscf_converge/src/example/wd/runpwscf/file_10054.in
Warning: card &IONS ignored
Warning: card ION_DYNAMICS = 'BFGS', ignored
Warning: card / ignored
Warning: card &CELL ignored
Warning: card CELL_DYNAMICS = 'BFGS', ignored
Warning: card CELL_FACTOR = 2.0, ignored
Warning: card PRESS = 0.0, ignored
Warning: card / ignored

     Current dimensions of program PWSCF are:
     Max number of different atomic species (ntypx) = 10
     Max number of k-points (npk) =  40000
     Max angular momentum in pseudopotentials (lmaxx) =  3
               file Al.pbe-nl-kjpaw_psl.1.0.0.UPF: wavefunction(s)  3S 3P renormalized

     Subspace diagonalization in iterative solution of the eigenvalue problem:
     a serial algorithm will be used


     G-vector sticks info
     --------------------
     sticks:   dense  smooth     PW     G-vecs:    dense   smooth      PW
     Sum         261     261    121                 3119     3119    1021



     bravais-lattice index     =            0
     lattice parameter (alat)  =       4.0400  a.u.
     unit-cell volume          =      65.9393 (a.u.)^3
     number of atoms/cell      =            4
     number of atomic types    =            1
     number of electrons       =        12.00
     number of Kohn-Sham states=           10
     kinetic-energy cutoff     =      75.0000  Ry
     charge density cutoff     =     200.0000  Ry
     convergence threshold     =      1.0E-06
     mixing beta               =       0.1000
     number of iterations used =           10  TF        mixing
     Exchange-correlation      = SLA PW PBX PBC ( 1  4  3  4 0 0)

     celldm(1)=   4.040000  celldm(2)=   0.000000  celldm(3)=   0.000000
     celldm(4)=   0.000000  celldm(5)=   0.000000  celldm(6)=   0.000000

     crystal axes: (cart. coord. in units of alat)
               a(1) = (   1.000000   0.000000   0.000000 )  
               a(2) = (   0.000000   1.000000   0.000000 )  
               a(3) = (   0.000000   0.000000   1.000000 )  

     reciprocal axes: (cart. coord. in units 2 pi/alat)
               b(1) = (  1.000000  0.000000  0.000000 )  
               b(2) = (  0.000000  1.000000  0.000000 )  
               b(3) = (  0.000000  0.000000  1.000000 )  


     PseudoPot. # 1 for Al read from file:
     /opt/pp/Al.pbe-nl-kjpaw_psl.1.0.0.UPF
     MD5 check sum: 1b67f78b73fe58c7924490f171ce8a1e
     Pseudo is Projector augmented-wave + core cor, Zval =  3.0
     Generated using "atomic" code by A. Dal Corso v.6.3
     Shape of augmentation charge: PSQ
     Using radial grid of 1135 points,  4 beta functions with: 
                l(1) =   0
                l(2) =   0
                l(3) =   1
                l(4) =   1
     Q(r) pseudized with 0 coefficients 


     atomic species   valence    mass     pseudopotential
        Al             3.00    26.98200     Al( 1.00)

     No symmetry found



   Cartesian axes

     site n.     atom                  positions (alat units)
         1           Al  tau(   1) = (  -0.0001235   0.0000359   0.0002572  )
         2           Al  tau(   2) = (   0.5003009   0.4992819   0.0002658  )
         3           Al  tau(   3) = (   0.4996490   0.0001153   0.5011170  )
         4           Al  tau(   4) = (  -0.0000756   0.5008267   0.5006943  )

     number of k points=    32  Marzari-Vanderbilt smearing, width (Ry)=  0.0200
                       cart. coord. in units 2pi/alat
        k(    1) = (   0.1250000   0.1250000   0.1250000), wk =   0.0625000
        k(    2) = (   0.1250000   0.1250000   0.3750000), wk =   0.0625000
        k(    3) = (   0.1250000   0.3750000   0.3750000), wk =   0.0625000
        k(    4) = (   0.3750000   0.3750000   0.3750000), wk =   0.0625000
        k(    5) = (  -0.1250000  -0.1250000   0.1250000), wk =   0.0625000
        k(    6) = (  -0.1250000   0.1250000  -0.1250000), wk =   0.0625000
        k(    7) = (   0.1250000  -0.1250000  -0.1250000), wk =   0.0625000
        k(    8) = (  -0.1250000  -0.1250000   0.3750000), wk =   0.0625000
        k(    9) = (  -0.1250000   0.1250000  -0.3750000), wk =   0.0625000
        k(   10) = (   0.1250000  -0.1250000  -0.3750000), wk =   0.0625000
        k(   11) = (   0.3750000  -0.1250000   0.1250000), wk =   0.0625000
        k(   12) = (  -0.3750000  -0.1250000  -0.1250000), wk =   0.0625000
        k(   13) = (   0.3750000   0.1250000  -0.1250000), wk =   0.0625000
        k(   14) = (  -0.3750000   0.1250000   0.1250000), wk =   0.0625000
        k(   15) = (  -0.1250000   0.3750000   0.1250000), wk =   0.0625000
        k(   16) = (  -0.1250000  -0.3750000  -0.1250000), wk =   0.0625000
        k(   17) = (   0.1250000   0.3750000  -0.1250000), wk =   0.0625000
        k(   18) = (   0.1250000  -0.3750000   0.1250000), wk =   0.0625000
        k(   19) = (  -0.1250000  -0.3750000   0.3750000), wk =   0.0625000
        k(   20) = (  -0.1250000   0.3750000  -0.3750000), wk =   0.0625000
        k(   21) = (   0.1250000  -0.3750000  -0.3750000), wk =   0.0625000
        k(   22) = (   0.3750000   0.1250000  -0.3750000), wk =   0.0625000
        k(   23) = (  -0.3750000  -0.1250000  -0.3750000), wk =   0.0625000
        k(   24) = (   0.3750000  -0.1250000   0.3750000), wk =   0.0625000
        k(   25) = (  -0.3750000   0.1250000   0.3750000), wk =   0.0625000
        k(   26) = (   0.3750000  -0.3750000   0.1250000), wk =   0.0625000
        k(   27) = (  -0.3750000  -0.3750000  -0.1250000), wk =   0.0625000
        k(   28) = (   0.3750000   0.3750000  -0.1250000), wk =   0.0625000
        k(   29) = (  -0.3750000   0.3750000   0.1250000), wk =   0.0625000
        k(   30) = (  -0.3750000  -0.3750000   0.3750000), wk =   0.0625000
        k(   31) = (  -0.3750000   0.3750000  -0.3750000), wk =   0.0625000
        k(   32) = (   0.3750000  -0.3750000  -0.3750000), wk =   0.0625000

     Dense  grid:     3119 G-vectors     FFT dimensions: (  20,  20,  20)

     Estimated max dynamical RAM per process >       8.79 MB

     Initial potential from superposition of free atoms

     starting charge   11.99084, renormalised to   12.00000
     Starting wfcs are   16 randomized atomic wfcs
     Checking if some PAW data can be deallocated... 

     total cpu time spent up to now is        1.2 secs

     Self-consistent Calculation

     iteration #  1     ecut=    75.00 Ry     beta= 0.10
     Davidson diagonalization with overlap
     ethr =  1.00E-02,  avg # of iterations =  4.9

     total cpu time spent up to now is        1.9 secs

     total energy              =    -141.65274255 Ry
     Harris-Foulkes estimate   =    -141.80703173 Ry
     estimated scf accuracy    <       0.18110317 Ry

     iteration #  2     ecut=    75.00 Ry     beta= 0.10
     Davidson diagonalization with overlap
     ethr =  1.51E-03,  avg # of iterations =  1.0

     total cpu time spent up to now is        2.4 secs

     total energy              =    -141.16259948 Ry
     Harris-Foulkes estimate   =    -141.65531707 Ry
     estimated scf accuracy    <       0.15205053 Ry

     iteration #  3     ecut=    75.00 Ry     beta= 0.10
     Davidson diagonalization with overlap
     ethr =  1.27E-03,  avg # of iterations =  2.0

     total cpu time spent up to now is        3.0 secs

     total energy              =    -141.24358341 Ry
     Harris-Foulkes estimate   =    -141.25589567 Ry
     estimated scf accuracy    <       0.01566053 Ry

     iteration #  4     ecut=    75.00 Ry     beta= 0.10
     Davidson diagonalization with overlap
     ethr =  1.31E-04,  avg # of iterations =  1.0

     total cpu time spent up to now is        3.5 secs

     total energy              =    -141.24149841 Ry
     Harris-Foulkes estimate   =    -141.24402516 Ry
     estimated scf accuracy    <       0.01246363 Ry

     iteration #  5     ecut=    75.00 Ry     beta= 0.10
     Davidson diagonalization with overlap
     ethr =  1.04E-04,  avg # of iterations =  1.0

     total cpu time spent up to now is        4.0 secs

     total energy              =    -141.24344681 Ry
     Harris-Foulkes estimate   =    -141.24257466 Ry
     estimated scf accuracy    <       0.00074141 Ry

     iteration #  6     ecut=    75.00 Ry     beta= 0.10
     Davidson diagonalization with overlap
     ethr =  6.18E-06,  avg # of iterations =  2.8

     total cpu time spent up to now is        4.6 secs

     total energy              =    -141.24370535 Ry
     Harris-Foulkes estimate   =    -141.24370504 Ry
     estimated scf accuracy    <       0.00010428 Ry

     iteration #  7     ecut=    75.00 Ry     beta= 0.10
     Davidson diagonalization with overlap
     ethr =  8.69E-07,  avg # of iterations =  1.2

     total cpu time spent up to now is        5.1 secs

     total energy              =    -141.24271411 Ry
     Harris-Foulkes estimate   =    -141.24370659 Ry
     estimated scf accuracy    <       0.00009262 Ry

     iteration #  8     ecut=    75.00 Ry     beta= 0.10
     Davidson diagonalization with overlap
     ethr =  7.72E-07,  avg # of iterations =  2.9

     total cpu time spent up to now is        5.7 secs

     total energy              =    -141.24286404 Ry
     Harris-Foulkes estimate   =    -141.24280311 Ry
     estimated scf accuracy    <       0.00002599 Ry

     iteration #  9     ecut=    75.00 Ry     beta= 0.10
     Davidson diagonalization with overlap
     ethr =  2.17E-07,  avg # of iterations =  2.0

     total cpu time spent up to now is        6.2 secs

     total energy              =    -141.24278055 Ry
     Harris-Foulkes estimate   =    -141.24286855 Ry
     estimated scf accuracy    <       0.00000864 Ry

     iteration # 10     ecut=    75.00 Ry     beta= 0.10
     Davidson diagonalization with overlap
     ethr =  7.20E-08,  avg # of iterations =  3.0

     total cpu time spent up to now is        6.8 secs

     total energy              =    -141.24278984 Ry
     Harris-Foulkes estimate   =    -141.24278992 Ry
     estimated scf accuracy    <       0.00000117 Ry

     iteration # 11     ecut=    75.00 Ry     beta= 0.10
     Davidson diagonalization with overlap
     ethr =  9.79E-09,  avg # of iterations =  1.5

     total cpu time spent up to now is        7.3 secs

     End of self-consistent calculation

          k = 0.1250 0.1250 0.1250 (   724 PWs)   bands (ev):

    30.9136  41.4364  41.4555  41.4742  52.4293  52.4496  52.4696  54.9316
    54.9415  54.9514

          k = 0.1250 0.1250 0.3750 (   733 PWs)   bands (ev):

    34.4066  39.0130  43.9418  43.9606  51.8117  51.8290  54.8777  54.8864
    55.6925  61.5165

          k = 0.1250 0.3750 0.3750 (   723 PWs)   bands (ev):

    37.4219  41.6567  41.6937  44.5487  50.4940  52.9066  52.9557  57.0466
    57.5683  60.7356

          k = 0.3750 0.3750 0.3750 (   717 PWs)   bands (ev):

    39.8875  43.9762  44.0142  44.0520  47.7750  47.8165  47.8579  51.6505
    66.9737  66.9781

          k =-0.1250-0.1250 0.1250 (   724 PWs)   bands (ev):

    30.9136  41.4404  41.4554  41.4702  52.4335  52.4495  52.4654  54.9337
    54.9415  54.9494

          k =-0.1250 0.1250-0.1250 (   724 PWs)   bands (ev):

    30.9136  41.4442  41.4555  41.4663  52.4376  52.4495  52.4612  54.9357
    54.9415  54.9474

          k = 0.1250-0.1250-0.1250 (   724 PWs)   bands (ev):

    30.9136  41.4422  41.4555  41.4684  52.4355  52.4496  52.4635  54.9346
    54.9415  54.9484

          k =-0.1250-0.1250 0.3750 (   733 PWs)   bands (ev):

    34.4066  39.0130  43.9417  43.9606  51.8117  51.8290  54.8778  54.8864
    55.6922  61.5167

          k =-0.1250 0.1250-0.3750 (   733 PWs)   bands (ev):

    34.4066  39.0130  43.9468  43.9555  51.8164  51.8243  54.8801  54.8841
    55.6923  61.5165

          k = 0.1250-0.1250-0.3750 (   733 PWs)   bands (ev):

    34.4066  39.0130  43.9469  43.9555  51.8163  51.8243  54.8801  54.8841
    55.6925  61.5164

          k = 0.3750-0.1250 0.1250 (   733 PWs)   bands (ev):

    34.4066  39.0129  43.9468  43.9556  51.8162  51.8242  54.8802  54.8843
    55.6925  61.5167

          k =-0.3750-0.1250-0.1250 (   733 PWs)   bands (ev):

    34.4066  39.0129  43.9432  43.9592  51.8131  51.8277  54.8780  54.8854
    55.6931  61.5167

          k = 0.3750 0.1250-0.1250 (   733 PWs)   bands (ev):

    34.4066  39.0129  43.9468  43.9556  51.8161  51.8242  54.8803  54.8843
    55.6925  61.5167

          k =-0.3750 0.1250 0.1250 (   733 PWs)   bands (ev):

    34.4066  39.0129  43.9432  43.9592  51.8131  51.8278  54.8781  54.8855
    55.6927  61.5167

          k =-0.1250 0.3750 0.1250 (   733 PWs)   bands (ev):

    34.4066  39.0128  43.9501  43.9526  51.8193  51.8215  54.8814  54.8825
    55.6924  61.5166

          k =-0.1250-0.3750-0.1250 (   733 PWs)   bands (ev):

    34.4066  39.0128  43.9467  43.9561  51.8159  51.8246  54.8799  54.8842
    55.6925  61.5167

          k = 0.1250 0.3750-0.1250 (   733 PWs)   bands (ev):

    34.4066  39.0128  43.9501  43.9526  51.8192  51.8214  54.8813  54.8825
    55.6928  61.5166

          k = 0.1250-0.3750 0.1250 (   733 PWs)   bands (ev):

    34.4066  39.0129  43.9466  43.9560  51.8160  51.8246  54.8799  54.8842
    55.6924  61.5167

          k =-0.1250-0.3750 0.3750 (   723 PWs)   bands (ev):

    37.4218  41.6652  41.6853  44.5486  50.4941  52.9177  52.9445  57.0460
    57.5692  60.7342

          k =-0.1250 0.3750-0.3750 (   723 PWs)   bands (ev):

    37.4218  41.6652  41.6853  44.5486  50.4941  52.9176  52.9444  57.0456
    57.5697  60.7358

          k = 0.1250-0.3750-0.3750 (   723 PWs)   bands (ev):

    37.4219  41.6567  41.6937  44.5488  50.4940  52.9066  52.9557  57.0462
    57.5685  60.7340

          k = 0.3750 0.1250-0.3750 (   723 PWs)   bands (ev):

    37.4219  41.6724  41.6779  44.5486  50.4940  52.9275  52.9349  57.0467
    57.5685  60.7361

          k =-0.3750-0.1250-0.3750 (   723 PWs)   bands (ev):

    37.4219  41.6643  41.6860  44.5485  50.4942  52.9168  52.9457  57.0468
    57.5681  60.7342

          k = 0.3750-0.1250 0.3750 (   723 PWs)   bands (ev):

    37.4219  41.6644  41.6861  44.5485  50.4941  52.9167  52.9456  57.0470
    57.5682  60.7359

          k =-0.3750 0.1250 0.3750 (   723 PWs)   bands (ev):

    37.4219  41.6724  41.6779  44.5486  50.4941  52.9276  52.9350  57.0463
    57.5685  60.7365

          k = 0.3750-0.3750 0.1250 (   723 PWs)   bands (ev):

    37.4219  41.6653  41.6851  44.5487  50.4938  52.9178  52.9443  57.0469
    57.5683  60.7362

          k =-0.3750-0.3750-0.1250 (   723 PWs)   bands (ev):

    37.4219  41.6535  41.6969  44.5485  50.4942  52.9022  52.9600  57.0448
    57.5702  60.7314

          k = 0.3750 0.3750-0.1250 (   723 PWs)   bands (ev):

    37.4219  41.6535  41.6969  44.5486  50.4940  52.9022  52.9599  57.0469
    57.5682  60.7313

          k =-0.3750 0.3750 0.1250 (   723 PWs)   bands (ev):

    37.4219  41.6653  41.6851  44.5486  50.4941  52.9179  52.9445  57.0422
    57.5728  60.7379

          k =-0.3750-0.3750 0.3750 (   717 PWs)   bands (ev):

    39.8875  43.9842  44.0143  44.0440  47.7837  47.8164  47.8493  51.6506
    66.9730  66.9759

          k =-0.3750 0.3750-0.3750 (   717 PWs)   bands (ev):

    39.8874  43.9919  44.0142  44.0362  47.7922  47.8164  47.8407  51.6506
    66.9739  66.9769

          k = 0.3750-0.3750-0.3750 (   717 PWs)   bands (ev):

    39.8875  43.9878  44.0142  44.0404  47.7877  47.8165  47.8453  51.6505
    66.9736  66.9777

     the Fermi energy is    52.6612 ev

!    total energy              =    -141.24278962 Ry
     Harris-Foulkes estimate   =    -141.24278996 Ry
     estimated scf accuracy    <       0.00000089 Ry

     total all-electron energy =     -1925.813912 Ry

     The total energy is the sum of the following terms:

     one-electron contribution =      58.67242024 Ry
     hartree contribution      =       0.21194587 Ry
     xc contribution           =     -17.28501440 Ry
     ewald contribution        =     -40.85514768 Ry
     one-center paw contrib.   =    -141.98636370 Ry
     smearing contrib. (-TS)   =      -0.00062994 Ry

     convergence has been achieved in  11 iterations

     Forces acting on atoms (cartesian axes, Ry/au):

     atom    1 type  1   force =     0.00201808   -0.00041677    0.01638951
     atom    2 type  1   force =    -0.00326931    0.00368764    0.01636081
     atom    3 type  1   force =    -0.00056520   -0.00064337   -0.01727887
     atom    4 type  1   force =     0.00181643   -0.00262749   -0.01547145

     Total force =     0.033372     Total SCF correction =     0.000016


     Computing stress (Cartesian axis) and pressure

          total   stress  (Ry/bohr**3)                   (kbar)     P=59673.21
   0.40565583   0.00000112   0.00000097      59674.02      0.16      0.14
   0.00000112   0.40564430  -0.00000083          0.16  59672.33     -0.12
   0.00000097  -0.00000083   0.40565073          0.14     -0.12  59673.27


     Writing output data file fe_scf_fcc_2.save/

     init_run     :      0.68s CPU      0.70s WALL (       1 calls)
     electrons    :      6.09s CPU      6.17s WALL (       1 calls)
     forces       :      0.06s CPU      0.06s WALL (       1 calls)
     stress       :      0.18s CPU      0.18s WALL (       1 calls)

     Called by init_run:
     wfcinit      :      0.18s CPU      0.18s WALL (       1 calls)
     potinit      :      0.24s CPU      0.25s WALL (       1 calls)
     hinit0       :      0.25s CPU      0.25s WALL (       1 calls)

     Called by electrons:
     c_bands      :      2.87s CPU      2.93s WALL (      11 calls)
     sum_band     :      0.50s CPU      0.49s WALL (      11 calls)
     v_of_rho     :      0.06s CPU      0.06s WALL (      12 calls)
     newd         :      0.06s CPU      0.05s WALL (      12 calls)
     PAW_pot      :      2.84s CPU      2.86s WALL (      12 calls)
     mix_rho      :      0.00s CPU      0.01s WALL (      11 calls)

     Called by c_bands:
     init_us_2    :      0.16s CPU      0.19s WALL (     800 calls)
     cegterg      :      2.64s CPU      2.65s WALL (     352 calls)

     Called by sum_band:
     sum_band:bec :      0.00s CPU      0.00s WALL (     352 calls)
     addusdens    :      0.02s CPU      0.03s WALL (      11 calls)

     Called by *egterg:
     h_psi        :      1.90s CPU      1.98s WALL (    1128 calls)
     s_psi        :      0.18s CPU      0.16s WALL (    1128 calls)
     g_psi        :      0.03s CPU      0.03s WALL (     744 calls)
     cdiaghg      :      0.20s CPU      0.19s WALL (    1096 calls)

     Called by h_psi:
     h_psi:pot    :      1.89s CPU      1.96s WALL (    1128 calls)
     h_psi:calbec :      0.16s CPU      0.16s WALL (    1128 calls)
     vloc_psi     :      1.55s CPU      1.63s WALL (    1128 calls)
     add_vuspsi   :      0.17s CPU      0.17s WALL (    1128 calls)

     General routines
     calbec       :      0.25s CPU      0.24s WALL (    1640 calls)
     fft          :      0.04s CPU      0.01s WALL (     158 calls)
     ffts         :      0.00s CPU      0.00s WALL (      11 calls)
     fftw         :      1.60s CPU      1.66s WALL (   22304 calls)

     Parallel routines

     PWSCF        :     7.46s CPU         7.58s WALL


   This run was terminated on:   1: 8:43  20Oct2019            

=------------------------------------------------------------------------------=
   JOB DONE.
=------------------------------------------------------------------------------=
