
     Program PWSCF v.6.3 starts on 22Oct2019 at 19: 4:29 

     This program is part of the open-source Quantum ESPRESSO suite
     for quantum simulation of materials; please cite
         "P. Giannozzi et al., J. Phys.:Condens. Matter 21 395502 (2009);
         "P. Giannozzi et al., J. Phys.:Condens. Matter 29 465901 (2017);
          URL http://www.quantum-espresso.org", 
     in publications or presentations arising from this work. More details at
     http://www.quantum-espresso.org/quote

     Parallel version (MPI & OpenMP), running on      20 processor cores
     Number of MPI processes:                20
     Threads/MPI process:                     1

     MPI processes distributed on     1 nodes
     R & G space division:  proc/nbgrp/npool/nimage =      20
     Reading input from /rds/homes/b/bxp912/jobs/20191022_test/wd/runpwscf/file_10094.in
Warning: card &IONS ignored
Warning: card ION_DYNAMICS = 'BFGS', ignored
Warning: card / ignored
Warning: card &CELL ignored
Warning: card CELL_DYNAMICS = 'BFGS', ignored
Warning: card CELL_FACTOR = 2.0, ignored
Warning: card PRESS = 0.0, ignored
Warning: card / ignored

     Current dimensions of program PWSCF are:
     Max number of different atomic species (ntypx) = 10
     Max number of k-points (npk) =  40000
     Max angular momentum in pseudopotentials (lmaxx) =  3
     Message from routine read_upf::
     Pseudo file /rds/homes/b/bxp912/pp/Al.pbe-nl-kjpaw_psl.1.0.0.UPF has been successfully fixed on the fly.
To avoid this message in the future you can permanently fix 
 your pseudo files following instructions given in: 
https://gitlab.com/QEF/q-e/blob/master/upftools/how_to_fix_upf.md
               file Al.pbe-nl-kjpaw_psl.1.0.0.UPF: wavefunction(s)  3S 3P renormalized

     Subspace diagonalization in iterative solution of the eigenvalue problem:
     a serial algorithm will be used

 
     Parallelization info
     --------------------
     sticks:   dense  smooth     PW     G-vecs:    dense   smooth      PW
     Min           8       8      4                   88       88      34
     Max           9       9      5                   93       93      39
     Sum         177     177     97                 1839     1839     739
 


     bravais-lattice index     =            0
     lattice parameter (alat)  =       4.0400  a.u.
     unit-cell volume          =      65.9393 (a.u.)^3
     number of atoms/cell      =            4
     number of atomic types    =            1
     number of electrons       =        12.00
     number of Kohn-Sham states=           10
     kinetic-energy cutoff     =      60.0000  Ry
     charge density cutoff     =     140.0000  Ry
     convergence threshold     =      1.0E-06
     mixing beta               =       0.1000
     number of iterations used =           10  TF        mixing
     Exchange-correlation      = SLA PW PBX PBC ( 1  4  3  4 0 0)

     celldm(1)=   4.040000  celldm(2)=   0.000000  celldm(3)=   0.000000
     celldm(4)=   0.000000  celldm(5)=   0.000000  celldm(6)=   0.000000

     crystal axes: (cart. coord. in units of alat)
               a(1) = (   1.000000   0.000000   0.000000 )  
               a(2) = (   0.000000   1.000000   0.000000 )  
               a(3) = (   0.000000   0.000000   1.000000 )  

     reciprocal axes: (cart. coord. in units 2 pi/alat)
               b(1) = (  1.000000  0.000000  0.000000 )  
               b(2) = (  0.000000  1.000000  0.000000 )  
               b(3) = (  0.000000  0.000000  1.000000 )  


     PseudoPot. # 1 for Al read from file:
     /rds/homes/b/bxp912/pp/Al.pbe-nl-kjpaw_psl.1.0.0.UPF
     MD5 check sum: 339dbea23cf3ab9a065ad45c0f9085d7
     Pseudo is Projector augmented-wave + core cor, Zval =  3.0
     Generated using "atomic" code by A. Dal Corso v.5.1
     Shape of augmentation charge: PSQ
     Using radial grid of 1135 points,  4 beta functions with: 
                l(1) =   0
                l(2) =   0
                l(3) =   1
                l(4) =   1
     Q(r) pseudized with 0 coefficients 


     atomic species   valence    mass     pseudopotential
        Al             3.00    26.98200     Al( 1.00)

     No symmetry found



   Cartesian axes

     site n.     atom                  positions (alat units)
         1           Al  tau(   1) = (  -0.0001235   0.0000359   0.0002572  )
         2           Al  tau(   2) = (   0.5003009   0.4992819   0.0002658  )
         3           Al  tau(   3) = (   0.4996490   0.0001153   0.5011170  )
         4           Al  tau(   4) = (  -0.0000756   0.5008267   0.5006943  )

     number of k points=    32  Marzari-Vanderbilt smearing, width (Ry)=  0.0200
                       cart. coord. in units 2pi/alat
        k(    1) = (   0.1250000   0.1250000   0.1250000), wk =   0.0625000
        k(    2) = (   0.1250000   0.1250000   0.3750000), wk =   0.0625000
        k(    3) = (   0.1250000   0.3750000   0.3750000), wk =   0.0625000
        k(    4) = (   0.3750000   0.3750000   0.3750000), wk =   0.0625000
        k(    5) = (  -0.1250000  -0.1250000   0.1250000), wk =   0.0625000
        k(    6) = (  -0.1250000   0.1250000  -0.1250000), wk =   0.0625000
        k(    7) = (   0.1250000  -0.1250000  -0.1250000), wk =   0.0625000
        k(    8) = (  -0.1250000  -0.1250000   0.3750000), wk =   0.0625000
        k(    9) = (  -0.1250000   0.1250000  -0.3750000), wk =   0.0625000
        k(   10) = (   0.1250000  -0.1250000  -0.3750000), wk =   0.0625000
        k(   11) = (   0.3750000  -0.1250000   0.1250000), wk =   0.0625000
        k(   12) = (  -0.3750000  -0.1250000  -0.1250000), wk =   0.0625000
        k(   13) = (   0.3750000   0.1250000  -0.1250000), wk =   0.0625000
        k(   14) = (  -0.3750000   0.1250000   0.1250000), wk =   0.0625000
        k(   15) = (  -0.1250000   0.3750000   0.1250000), wk =   0.0625000
        k(   16) = (  -0.1250000  -0.3750000  -0.1250000), wk =   0.0625000
        k(   17) = (   0.1250000   0.3750000  -0.1250000), wk =   0.0625000
        k(   18) = (   0.1250000  -0.3750000   0.1250000), wk =   0.0625000
        k(   19) = (  -0.1250000  -0.3750000   0.3750000), wk =   0.0625000
        k(   20) = (  -0.1250000   0.3750000  -0.3750000), wk =   0.0625000
        k(   21) = (   0.1250000  -0.3750000  -0.3750000), wk =   0.0625000
        k(   22) = (   0.3750000   0.1250000  -0.3750000), wk =   0.0625000
        k(   23) = (  -0.3750000  -0.1250000  -0.3750000), wk =   0.0625000
        k(   24) = (   0.3750000  -0.1250000   0.3750000), wk =   0.0625000
        k(   25) = (  -0.3750000   0.1250000   0.3750000), wk =   0.0625000
        k(   26) = (   0.3750000  -0.3750000   0.1250000), wk =   0.0625000
        k(   27) = (  -0.3750000  -0.3750000  -0.1250000), wk =   0.0625000
        k(   28) = (   0.3750000   0.3750000  -0.1250000), wk =   0.0625000
        k(   29) = (  -0.3750000   0.3750000   0.1250000), wk =   0.0625000
        k(   30) = (  -0.3750000  -0.3750000   0.3750000), wk =   0.0625000
        k(   31) = (  -0.3750000   0.3750000  -0.3750000), wk =   0.0625000
        k(   32) = (   0.3750000  -0.3750000  -0.3750000), wk =   0.0625000

     Dense  grid:     1839 G-vectors     FFT dimensions: (  15,  15,  15)

     Estimated max dynamical RAM per process >       0.50 MB

     Estimated total dynamical RAM >       9.93 MB

     Initial potential from superposition of free atoms

     starting charge   11.99084, renormalised to   12.00000
     Starting wfcs are   16 randomized atomic wfcs
     Checking if some PAW data can be deallocated... 

     total cpu time spent up to now is        0.7 secs

     Self-consistent Calculation

     iteration #  1     ecut=    60.00 Ry     beta= 0.10
     Davidson diagonalization with overlap
     ethr =  1.00E-02,  avg # of iterations =  4.9

     total cpu time spent up to now is        0.9 secs

     total energy              =    -141.65195313 Ry
     Harris-Foulkes estimate   =    -141.80627259 Ry
     estimated scf accuracy    <       0.18123544 Ry

     iteration #  2     ecut=    60.00 Ry     beta= 0.10
     Davidson diagonalization with overlap
     ethr =  1.51E-03,  avg # of iterations =  1.0

     total cpu time spent up to now is        1.0 secs

     total energy              =    -141.16160514 Ry
     Harris-Foulkes estimate   =    -141.65472069 Ry
     estimated scf accuracy    <       0.15201786 Ry

     iteration #  3     ecut=    60.00 Ry     beta= 0.10
     Davidson diagonalization with overlap
     ethr =  1.27E-03,  avg # of iterations =  2.0

     total cpu time spent up to now is        1.1 secs

     total energy              =    -141.24177967 Ry
     Harris-Foulkes estimate   =    -141.25295992 Ry
     estimated scf accuracy    <       0.01537111 Ry

     iteration #  4     ecut=    60.00 Ry     beta= 0.10
     Davidson diagonalization with overlap
     ethr =  1.28E-04,  avg # of iterations =  1.0

     total cpu time spent up to now is        1.2 secs

     total energy              =    -141.24105953 Ry
     Harris-Foulkes estimate   =    -141.24221645 Ry
     estimated scf accuracy    <       0.01222531 Ry

     iteration #  5     ecut=    60.00 Ry     beta= 0.10
     Davidson diagonalization with overlap
     ethr =  1.02E-04,  avg # of iterations =  1.0

     total cpu time spent up to now is        1.3 secs

     total energy              =    -141.24288593 Ry
     Harris-Foulkes estimate   =    -141.24212825 Ry
     estimated scf accuracy    <       0.00072767 Ry

     iteration #  6     ecut=    60.00 Ry     beta= 0.10
     Davidson diagonalization with overlap
     ethr =  6.06E-06,  avg # of iterations =  2.7

     total cpu time spent up to now is        1.4 secs

     total energy              =    -141.24314564 Ry
     Harris-Foulkes estimate   =    -141.24312559 Ry
     estimated scf accuracy    <       0.00012128 Ry

     iteration #  7     ecut=    60.00 Ry     beta= 0.10
     Davidson diagonalization with overlap
     ethr =  1.01E-06,  avg # of iterations =  1.1

     total cpu time spent up to now is        1.5 secs

     total energy              =    -141.24223747 Ry
     Harris-Foulkes estimate   =    -141.24314730 Ry
     estimated scf accuracy    <       0.00010549 Ry

     iteration #  8     ecut=    60.00 Ry     beta= 0.10
     Davidson diagonalization with overlap
     ethr =  8.79E-07,  avg # of iterations =  2.9

     total cpu time spent up to now is        1.6 secs

     total energy              =    -141.24238475 Ry
     Harris-Foulkes estimate   =    -141.24235956 Ry
     estimated scf accuracy    <       0.00006542 Ry

     iteration #  9     ecut=    60.00 Ry     beta= 0.10
     Davidson diagonalization with overlap
     ethr =  5.45E-07,  avg # of iterations =  2.0

     total cpu time spent up to now is        1.7 secs

     total energy              =    -141.24232757 Ry
     Harris-Foulkes estimate   =    -141.24240125 Ry
     estimated scf accuracy    <       0.00001071 Ry

     iteration # 10     ecut=    60.00 Ry     beta= 0.10
     Davidson diagonalization with overlap
     ethr =  8.92E-08,  avg # of iterations =  2.0

     total cpu time spent up to now is        1.8 secs

     total energy              =    -141.24232984 Ry
     Harris-Foulkes estimate   =    -141.24233312 Ry
     estimated scf accuracy    <       0.00000633 Ry

     iteration # 11     ecut=    60.00 Ry     beta= 0.10
     Davidson diagonalization with overlap
     ethr =  5.27E-08,  avg # of iterations =  1.0

     total cpu time spent up to now is        1.9 secs

     total energy              =    -141.24232881 Ry
     Harris-Foulkes estimate   =    -141.24233000 Ry
     estimated scf accuracy    <       0.00000107 Ry

     iteration # 12     ecut=    60.00 Ry     beta= 0.10
     Davidson diagonalization with overlap
     ethr =  8.89E-09,  avg # of iterations =  1.0

     total cpu time spent up to now is        2.0 secs

     End of self-consistent calculation

          k = 0.1250 0.1250 0.1250 (   510 PWs)   bands (ev):

    30.9126  41.4376  41.4556  41.4754  52.4297  52.4500  52.4701  54.9306
    54.9405  54.9505

          k = 0.1250 0.1250 0.3750 (   512 PWs)   bands (ev):

    34.4054  39.0122  43.9422  43.9610  51.8115  51.8287  54.8776  54.8863
    55.6931  61.5176

          k = 0.1250 0.3750 0.3750 (   527 PWs)   bands (ev):

    37.4207  41.6558  41.6927  44.5482  50.4940  52.9067  52.9559  57.0469
    57.5687  60.7346

          k = 0.3750 0.3750 0.3750 (   519 PWs)   bands (ev):

    39.8864  43.9755  44.0131  44.0512  47.7749  47.8164  47.8579  51.6505
    66.9737  66.9779

          k =-0.1250-0.1250 0.1250 (   510 PWs)   bands (ev):

    30.9126  41.4414  41.4559  41.4713  52.4340  52.4499  52.4659  54.9327
    54.9405  54.9484

          k =-0.1250 0.1250-0.1250 (   510 PWs)   bands (ev):

    30.9126  41.4449  41.4566  41.4671  52.4381  52.4500  52.4617  54.9347
    54.9405  54.9463

          k = 0.1250-0.1250-0.1250 (   510 PWs)   bands (ev):

    30.9126  41.4431  41.4561  41.4694  52.4359  52.4500  52.4640  54.9336
    54.9405  54.9474

          k =-0.1250-0.1250 0.3750 (   512 PWs)   bands (ev):

    34.4054  39.0123  43.9422  43.9610  51.8115  51.8288  54.8776  54.8863
    55.6928  61.5176

          k =-0.1250 0.1250-0.3750 (   512 PWs)   bands (ev):

    34.4054  39.0123  43.9473  43.9559  51.8161  51.8240  54.8800  54.8840
    55.6929  61.5175

          k = 0.1250-0.1250-0.3750 (   512 PWs)   bands (ev):

    34.4054  39.0122  43.9473  43.9560  51.8161  51.8240  54.8799  54.8839
    55.6931  61.5174

          k = 0.3750-0.1250 0.1250 (   512 PWs)   bands (ev):

    34.4055  39.0121  43.9473  43.9560  51.8159  51.8239  54.8801  54.8841
    55.6930  61.5176

          k =-0.3750-0.1250-0.1250 (   512 PWs)   bands (ev):

    34.4055  39.0121  43.9436  43.9597  51.8128  51.8275  54.8779  54.8853
    55.6937  61.5176

          k = 0.3750 0.1250-0.1250 (   512 PWs)   bands (ev):

    34.4055  39.0121  43.9473  43.9560  51.8159  51.8239  54.8801  54.8841
    55.6931  61.5176

          k =-0.3750 0.1250 0.1250 (   512 PWs)   bands (ev):

    34.4054  39.0121  43.9436  43.9596  51.8129  51.8276  54.8780  54.8854
    55.6933  61.5176

          k =-0.1250 0.3750 0.1250 (   512 PWs)   bands (ev):

    34.4054  39.0121  43.9506  43.9530  51.8190  51.8212  54.8813  54.8824
    55.6930  61.5176

          k =-0.1250-0.3750-0.1250 (   512 PWs)   bands (ev):

    34.4054  39.0120  43.9471  43.9565  51.8157  51.8243  54.8798  54.8841
    55.6931  61.5176

          k = 0.1250 0.3750-0.1250 (   512 PWs)   bands (ev):

    34.4054  39.0121  43.9506  43.9530  51.8190  51.8212  54.8811  54.8823
    55.6933  61.5175

          k = 0.1250-0.3750 0.1250 (   512 PWs)   bands (ev):

    34.4054  39.0121  43.9471  43.9565  51.8157  51.8244  54.8797  54.8841
    55.6929  61.5176

          k =-0.1250-0.3750 0.3750 (   527 PWs)   bands (ev):

    37.4206  41.6642  41.6844  44.5481  50.4942  52.9178  52.9446  57.0462
    57.5696  60.7351

          k =-0.1250 0.3750-0.3750 (   527 PWs)   bands (ev):

    37.4206  41.6642  41.6844  44.5481  50.4942  52.9177  52.9446  57.0458
    57.5701  60.7383

          k = 0.1250-0.3750-0.3750 (   527 PWs)   bands (ev):

    37.4207  41.6558  41.6927  44.5483  50.4941  52.9067  52.9559  57.0465
    57.5689  60.7333

          k = 0.3750 0.1250-0.3750 (   527 PWs)   bands (ev):

    37.4207  41.6714  41.6770  44.5481  50.4940  52.9276  52.9350  57.0469
    57.5689  60.7378

          k =-0.3750-0.1250-0.3750 (   527 PWs)   bands (ev):

    37.4207  41.6634  41.6851  44.5480  50.4943  52.9169  52.9458  57.0471
    57.5685  60.7351

          k = 0.3750-0.1250 0.3750 (   527 PWs)   bands (ev):

    37.4206  41.6635  41.6851  44.5481  50.4941  52.9168  52.9457  57.0473
    57.5686  60.7357

          k =-0.3750 0.1250 0.3750 (   527 PWs)   bands (ev):

    37.4207  41.6714  41.6770  44.5481  50.4942  52.9277  52.9351  57.0465
    57.5689  60.7375

          k = 0.3750-0.3750 0.1250 (   527 PWs)   bands (ev):

    37.4207  41.6643  41.6842  44.5482  50.4939  52.9179  52.9444  57.0471
    57.5687  60.7355

          k =-0.3750-0.3750-0.1250 (   527 PWs)   bands (ev):

    37.4207  41.6526  41.6960  44.5480  50.4942  52.9023  52.9601  57.0451
    57.5706  60.7340

          k = 0.3750 0.3750-0.1250 (   527 PWs)   bands (ev):

    37.4207  41.6526  41.6960  44.5481  50.4941  52.9022  52.9600  57.0472
    57.5686  60.7331

          k =-0.3750 0.3750 0.1250 (   527 PWs)   bands (ev):

    37.4207  41.6643  41.6842  44.5481  50.4942  52.9180  52.9445  57.0425
    57.5731  60.7354

          k =-0.3750-0.3750 0.3750 (   519 PWs)   bands (ev):

    39.8863  43.9834  44.0132  44.0432  47.7836  47.8163  47.8492  51.6506
    66.9738  66.9767

          k =-0.3750 0.3750-0.3750 (   519 PWs)   bands (ev):

    39.8863  43.9910  44.0134  44.0353  47.7921  47.8163  47.8406  51.6506
    66.9746  66.9779

          k = 0.3750-0.3750-0.3750 (   519 PWs)   bands (ev):

    39.8863  43.9870  44.0132  44.0395  47.7876  47.8164  47.8453  51.6505
    66.9751  66.9781

     the Fermi energy is    52.6615 ev

!    total energy              =    -141.24232798 Ry
     Harris-Foulkes estimate   =    -141.24232884 Ry
     estimated scf accuracy    <       0.00000040 Ry

     total all-electron energy =     -1925.813456 Ry

     The total energy is the sum of the following terms:

     one-electron contribution =      58.67339404 Ry
     hartree contribution      =       0.21196785 Ry
     xc contribution           =     -17.28528396 Ry
     ewald contribution        =     -40.85514766 Ry
     one-center paw contrib.   =    -141.98662220 Ry
     smearing contrib. (-TS)   =      -0.00063605 Ry

     convergence has been achieved in  12 iterations

     Forces acting on atoms (cartesian axes, Ry/au):

     atom    1 type  1   force =     0.00199990   -0.00039506    0.01644736
     atom    2 type  1   force =    -0.00322697    0.00367822    0.01642093
     atom    3 type  1   force =    -0.00056825   -0.00069613   -0.01730310
     atom    4 type  1   force =     0.00179532   -0.00258702   -0.01556519

     Total force =     0.033476     Total SCF correction =     0.000008


     Computing stress (Cartesian axis) and pressure

          total   stress  (Ry/bohr**3)                   (kbar)     P=59671.96
   0.40564714   0.00000108   0.00000090      59672.74      0.16      0.13
   0.00000108   0.40563583  -0.00000101          0.16  59671.08     -0.15
   0.00000090  -0.00000101   0.40564249          0.13     -0.15  59672.06


     Writing output data file fe_scf_fcc_2.save/
 
     init_run     :      0.09s CPU      0.13s WALL (       1 calls)
     electrons    :      1.19s CPU      1.31s WALL (       1 calls)
     forces       :      0.01s CPU      0.01s WALL (       1 calls)
     stress       :      0.01s CPU      0.01s WALL (       1 calls)

     Called by init_run:
     wfcinit      :      0.04s CPU      0.05s WALL (       1 calls)
     potinit      :      0.01s CPU      0.02s WALL (       1 calls)
     hinit0       :      0.03s CPU      0.06s WALL (       1 calls)

     Called by electrons:
     c_bands      :      0.88s CPU      0.98s WALL (      12 calls)
     sum_band     :      0.13s CPU      0.15s WALL (      12 calls)
     v_of_rho     :      0.01s CPU      0.01s WALL (      13 calls)
     newd         :      0.00s CPU      0.00s WALL (      13 calls)
     PAW_pot      :      0.16s CPU      0.17s WALL (      13 calls)
     mix_rho      :      0.00s CPU      0.00s WALL (      12 calls)

     Called by c_bands:
     init_us_2    :      0.01s CPU      0.01s WALL (     864 calls)
     cegterg      :      0.85s CPU      0.95s WALL (     384 calls)

     Called by sum_band:
     sum_band:bec :      0.00s CPU      0.00s WALL (     384 calls)
     addusdens    :      0.00s CPU      0.00s WALL (      12 calls)

     Called by *egterg:
     h_psi        :      0.60s CPU      0.67s WALL (    1136 calls)
     s_psi        :      0.01s CPU      0.01s WALL (    1136 calls)
     g_psi        :      0.00s CPU      0.00s WALL (     720 calls)
     cdiaghg      :      0.17s CPU      0.19s WALL (    1104 calls)

     Called by h_psi:
     h_psi:pot    :      0.60s CPU      0.67s WALL (    1136 calls)
     h_psi:calbec :      0.06s CPU      0.07s WALL (    1136 calls)
     vloc_psi     :      0.53s CPU      0.59s WALL (    1136 calls)
     add_vuspsi   :      0.01s CPU      0.01s WALL (    1136 calls)

     General routines
     calbec       :      0.08s CPU      0.09s WALL (    1680 calls)
     fft          :      0.03s CPU      0.06s WALL (     169 calls)
     ffts         :      0.00s CPU      0.00s WALL (      12 calls)
     fftw         :      0.59s CPU      0.66s WALL (   23764 calls)
 
     Parallel routines
     fft_scatt_xy :      0.04s CPU      0.04s WALL (   23945 calls)
     fft_scatt_yz :      0.48s CPU      0.54s WALL (   23945 calls)
 
     PWSCF        :     1.86s CPU         2.36s WALL

 
   This run was terminated on:  19: 4:31  22Oct2019            

=------------------------------------------------------------------------------=
   JOB DONE.
=------------------------------------------------------------------------------=
