
     Program PWSCF v.6.3 starts on 22Oct2019 at 19: 6:44 

     This program is part of the open-source Quantum ESPRESSO suite
     for quantum simulation of materials; please cite
         "P. Giannozzi et al., J. Phys.:Condens. Matter 21 395502 (2009);
         "P. Giannozzi et al., J. Phys.:Condens. Matter 29 465901 (2017);
          URL http://www.quantum-espresso.org", 
     in publications or presentations arising from this work. More details at
     http://www.quantum-espresso.org/quote

     Parallel version (MPI & OpenMP), running on      20 processor cores
     Number of MPI processes:                20
     Threads/MPI process:                     1

     MPI processes distributed on     1 nodes
     R & G space division:  proc/nbgrp/npool/nimage =      20
     Reading input from /rds/homes/b/bxp912/jobs/20191022_test/wd/runpwscf/file_10142.in
Warning: card &IONS ignored
Warning: card ION_DYNAMICS = 'BFGS', ignored
Warning: card / ignored
Warning: card &CELL ignored
Warning: card CELL_DYNAMICS = 'BFGS', ignored
Warning: card CELL_FACTOR = 2.0, ignored
Warning: card PRESS = 0.0, ignored
Warning: card / ignored

     Current dimensions of program PWSCF are:
     Max number of different atomic species (ntypx) = 10
     Max number of k-points (npk) =  40000
     Max angular momentum in pseudopotentials (lmaxx) =  3
     Message from routine read_upf::
     Pseudo file /rds/homes/b/bxp912/pp/Al.pbe-nl-kjpaw_psl.1.0.0.UPF has been successfully fixed on the fly.
To avoid this message in the future you can permanently fix 
 your pseudo files following instructions given in: 
https://gitlab.com/QEF/q-e/blob/master/upftools/how_to_fix_upf.md
               file Al.pbe-nl-kjpaw_psl.1.0.0.UPF: wavefunction(s)  3S 3P renormalized

     Subspace diagonalization in iterative solution of the eigenvalue problem:
     a serial algorithm will be used

 
     Parallelization info
     --------------------
     sticks:   dense  smooth     PW     G-vecs:    dense   smooth      PW
     Min          13      13      4                  155      155      34
     Max          14      14      5                  157      157      39
     Sum         261     261     97                 3119     3119     739
 


     bravais-lattice index     =            0
     lattice parameter (alat)  =       4.0400  a.u.
     unit-cell volume          =      65.9393 (a.u.)^3
     number of atoms/cell      =            4
     number of atomic types    =            1
     number of electrons       =        12.00
     number of Kohn-Sham states=           10
     kinetic-energy cutoff     =      60.0000  Ry
     charge density cutoff     =     200.0000  Ry
     convergence threshold     =      1.0E-06
     mixing beta               =       0.1000
     number of iterations used =           10  TF        mixing
     Exchange-correlation      = SLA PW PBX PBC ( 1  4  3  4 0 0)

     celldm(1)=   4.040000  celldm(2)=   0.000000  celldm(3)=   0.000000
     celldm(4)=   0.000000  celldm(5)=   0.000000  celldm(6)=   0.000000

     crystal axes: (cart. coord. in units of alat)
               a(1) = (   1.000000   0.000000   0.000000 )  
               a(2) = (   0.000000   1.000000   0.000000 )  
               a(3) = (   0.000000   0.000000   1.000000 )  

     reciprocal axes: (cart. coord. in units 2 pi/alat)
               b(1) = (  1.000000  0.000000  0.000000 )  
               b(2) = (  0.000000  1.000000  0.000000 )  
               b(3) = (  0.000000  0.000000  1.000000 )  


     PseudoPot. # 1 for Al read from file:
     /rds/homes/b/bxp912/pp/Al.pbe-nl-kjpaw_psl.1.0.0.UPF
     MD5 check sum: 339dbea23cf3ab9a065ad45c0f9085d7
     Pseudo is Projector augmented-wave + core cor, Zval =  3.0
     Generated using "atomic" code by A. Dal Corso v.5.1
     Shape of augmentation charge: PSQ
     Using radial grid of 1135 points,  4 beta functions with: 
                l(1) =   0
                l(2) =   0
                l(3) =   1
                l(4) =   1
     Q(r) pseudized with 0 coefficients 


     atomic species   valence    mass     pseudopotential
        Al             3.00    26.98200     Al( 1.00)

     No symmetry found



   Cartesian axes

     site n.     atom                  positions (alat units)
         1           Al  tau(   1) = (  -0.0001235   0.0000359   0.0002572  )
         2           Al  tau(   2) = (   0.5003009   0.4992819   0.0002658  )
         3           Al  tau(   3) = (   0.4996490   0.0001153   0.5011170  )
         4           Al  tau(   4) = (  -0.0000756   0.5008267   0.5006943  )

     number of k points=    32  Marzari-Vanderbilt smearing, width (Ry)=  0.0200
                       cart. coord. in units 2pi/alat
        k(    1) = (   0.1250000   0.1250000   0.1250000), wk =   0.0625000
        k(    2) = (   0.1250000   0.1250000   0.3750000), wk =   0.0625000
        k(    3) = (   0.1250000   0.3750000   0.3750000), wk =   0.0625000
        k(    4) = (   0.3750000   0.3750000   0.3750000), wk =   0.0625000
        k(    5) = (  -0.1250000  -0.1250000   0.1250000), wk =   0.0625000
        k(    6) = (  -0.1250000   0.1250000  -0.1250000), wk =   0.0625000
        k(    7) = (   0.1250000  -0.1250000  -0.1250000), wk =   0.0625000
        k(    8) = (  -0.1250000  -0.1250000   0.3750000), wk =   0.0625000
        k(    9) = (  -0.1250000   0.1250000  -0.3750000), wk =   0.0625000
        k(   10) = (   0.1250000  -0.1250000  -0.3750000), wk =   0.0625000
        k(   11) = (   0.3750000  -0.1250000   0.1250000), wk =   0.0625000
        k(   12) = (  -0.3750000  -0.1250000  -0.1250000), wk =   0.0625000
        k(   13) = (   0.3750000   0.1250000  -0.1250000), wk =   0.0625000
        k(   14) = (  -0.3750000   0.1250000   0.1250000), wk =   0.0625000
        k(   15) = (  -0.1250000   0.3750000   0.1250000), wk =   0.0625000
        k(   16) = (  -0.1250000  -0.3750000  -0.1250000), wk =   0.0625000
        k(   17) = (   0.1250000   0.3750000  -0.1250000), wk =   0.0625000
        k(   18) = (   0.1250000  -0.3750000   0.1250000), wk =   0.0625000
        k(   19) = (  -0.1250000  -0.3750000   0.3750000), wk =   0.0625000
        k(   20) = (  -0.1250000   0.3750000  -0.3750000), wk =   0.0625000
        k(   21) = (   0.1250000  -0.3750000  -0.3750000), wk =   0.0625000
        k(   22) = (   0.3750000   0.1250000  -0.3750000), wk =   0.0625000
        k(   23) = (  -0.3750000  -0.1250000  -0.3750000), wk =   0.0625000
        k(   24) = (   0.3750000  -0.1250000   0.3750000), wk =   0.0625000
        k(   25) = (  -0.3750000   0.1250000   0.3750000), wk =   0.0625000
        k(   26) = (   0.3750000  -0.3750000   0.1250000), wk =   0.0625000
        k(   27) = (  -0.3750000  -0.3750000  -0.1250000), wk =   0.0625000
        k(   28) = (   0.3750000   0.3750000  -0.1250000), wk =   0.0625000
        k(   29) = (  -0.3750000   0.3750000   0.1250000), wk =   0.0625000
        k(   30) = (  -0.3750000  -0.3750000   0.3750000), wk =   0.0625000
        k(   31) = (  -0.3750000   0.3750000  -0.3750000), wk =   0.0625000
        k(   32) = (   0.3750000  -0.3750000  -0.3750000), wk =   0.0625000

     Dense  grid:     3119 G-vectors     FFT dimensions: (  20,  20,  20)

     Estimated max dynamical RAM per process >       0.58 MB

     Estimated total dynamical RAM >      11.62 MB

     Initial potential from superposition of free atoms

     starting charge   11.99084, renormalised to   12.00000
     Starting wfcs are   16 randomized atomic wfcs
     Checking if some PAW data can be deallocated... 

     total cpu time spent up to now is        0.7 secs

     Self-consistent Calculation

     iteration #  1     ecut=    60.00 Ry     beta= 0.10
     Davidson diagonalization with overlap
     ethr =  1.00E-02,  avg # of iterations =  4.9

     total cpu time spent up to now is        0.9 secs

     total energy              =    -141.65191949 Ry
     Harris-Foulkes estimate   =    -141.80623336 Ry
     estimated scf accuracy    <       0.18119786 Ry

     iteration #  2     ecut=    60.00 Ry     beta= 0.10
     Davidson diagonalization with overlap
     ethr =  1.51E-03,  avg # of iterations =  1.0

     total cpu time spent up to now is        1.0 secs

     total energy              =    -141.16163847 Ry
     Harris-Foulkes estimate   =    -141.65467809 Ry
     estimated scf accuracy    <       0.15198674 Ry

     iteration #  3     ecut=    60.00 Ry     beta= 0.10
     Davidson diagonalization with overlap
     ethr =  1.27E-03,  avg # of iterations =  2.0

     total cpu time spent up to now is        1.1 secs

     total energy              =    -141.24183513 Ry
     Harris-Foulkes estimate   =    -141.25302342 Ry
     estimated scf accuracy    <       0.01537133 Ry

     iteration #  4     ecut=    60.00 Ry     beta= 0.10
     Davidson diagonalization with overlap
     ethr =  1.28E-04,  avg # of iterations =  1.0

     total cpu time spent up to now is        1.2 secs

     total energy              =    -141.24104169 Ry
     Harris-Foulkes estimate   =    -141.24227084 Ry
     estimated scf accuracy    <       0.01222905 Ry

     iteration #  5     ecut=    60.00 Ry     beta= 0.10
     Davidson diagonalization with overlap
     ethr =  1.02E-04,  avg # of iterations =  1.0

     total cpu time spent up to now is        1.3 secs

     total energy              =    -141.24285781 Ry
     Harris-Foulkes estimate   =    -141.24210617 Ry
     estimated scf accuracy    <       0.00072870 Ry

     iteration #  6     ecut=    60.00 Ry     beta= 0.10
     Davidson diagonalization with overlap
     ethr =  6.07E-06,  avg # of iterations =  2.7

     total cpu time spent up to now is        1.4 secs

     total energy              =    -141.24311807 Ry
     Harris-Foulkes estimate   =    -141.24309762 Ry
     estimated scf accuracy    <       0.00012101 Ry

     iteration #  7     ecut=    60.00 Ry     beta= 0.10
     Davidson diagonalization with overlap
     ethr =  1.01E-06,  avg # of iterations =  1.0

     total cpu time spent up to now is        1.5 secs

     total energy              =    -141.24221237 Ry
     Harris-Foulkes estimate   =    -141.24311976 Ry
     estimated scf accuracy    <       0.00010465 Ry

     iteration #  8     ecut=    60.00 Ry     beta= 0.10
     Davidson diagonalization with overlap
     ethr =  8.72E-07,  avg # of iterations =  2.9

     total cpu time spent up to now is        1.7 secs

     total energy              =    -141.24236259 Ry
     Harris-Foulkes estimate   =    -141.24233237 Ry
     estimated scf accuracy    <       0.00005946 Ry

     iteration #  9     ecut=    60.00 Ry     beta= 0.10
     Davidson diagonalization with overlap
     ethr =  4.96E-07,  avg # of iterations =  2.0

     total cpu time spent up to now is        1.8 secs

     total energy              =    -141.24230048 Ry
     Harris-Foulkes estimate   =    -141.24237875 Ry
     estimated scf accuracy    <       0.00001037 Ry

     iteration # 10     ecut=    60.00 Ry     beta= 0.10
     Davidson diagonalization with overlap
     ethr =  8.64E-08,  avg # of iterations =  2.2

     total cpu time spent up to now is        1.9 secs

     total energy              =    -141.24230575 Ry
     Harris-Foulkes estimate   =    -141.24230684 Ry
     estimated scf accuracy    <       0.00000570 Ry

     iteration # 11     ecut=    60.00 Ry     beta= 0.10
     Davidson diagonalization with overlap
     ethr =  4.75E-08,  avg # of iterations =  1.0

     total cpu time spent up to now is        2.0 secs

     total energy              =    -141.24230385 Ry
     Harris-Foulkes estimate   =    -141.24230587 Ry
     estimated scf accuracy    <       0.00000105 Ry

     iteration # 12     ecut=    60.00 Ry     beta= 0.10
     Davidson diagonalization with overlap
     ethr =  8.78E-09,  avg # of iterations =  2.0

     total cpu time spent up to now is        2.1 secs

     End of self-consistent calculation

          k = 0.1250 0.1250 0.1250 (   510 PWs)   bands (ev):

    30.9157  41.4384  41.4576  41.4763  52.4300  52.4503  52.4704  54.9331
    54.9430  54.9530

          k = 0.1250 0.1250 0.3750 (   512 PWs)   bands (ev):

    34.4084  39.0148  43.9438  43.9627  51.8129  51.8302  54.8793  54.8879
    55.6933  61.5184

          k = 0.1250 0.3750 0.3750 (   527 PWs)   bands (ev):

    37.4236  41.6585  41.6954  44.5507  50.4954  52.9078  52.9570  57.0477
    57.5696  60.7353

          k = 0.3750 0.3750 0.3750 (   519 PWs)   bands (ev):

    39.8891  43.9779  44.0159  44.0536  47.7765  47.8180  47.8595  51.6519
    66.9738  66.9782

          k =-0.1250-0.1250 0.1250 (   510 PWs)   bands (ev):

    30.9157  41.4424  41.4575  41.4723  52.4343  52.4502  52.4662  54.9352
    54.9430  54.9509

          k =-0.1250 0.1250-0.1250 (   510 PWs)   bands (ev):

    30.9157  41.4463  41.4575  41.4685  52.4384  52.4503  52.4620  54.9373
    54.9430  54.9489

          k = 0.1250-0.1250-0.1250 (   510 PWs)   bands (ev):

    30.9157  41.4443  41.4575  41.4705  52.4362  52.4503  52.4642  54.9362
    54.9430  54.9499

          k =-0.1250-0.1250 0.3750 (   512 PWs)   bands (ev):

    34.4084  39.0148  43.9438  43.9626  51.8130  51.8302  54.8793  54.8880
    55.6931  61.5183

          k =-0.1250 0.1250-0.3750 (   512 PWs)   bands (ev):

    34.4084  39.0148  43.9489  43.9575  51.8176  51.8255  54.8816  54.8856
    55.6932  61.5182

          k = 0.1250-0.1250-0.3750 (   512 PWs)   bands (ev):

    34.4084  39.0148  43.9489  43.9576  51.8176  51.8255  54.8816  54.8856
    55.6934  61.5181

          k = 0.3750-0.1250 0.1250 (   512 PWs)   bands (ev):

    34.4085  39.0147  43.9489  43.9576  51.8174  51.8254  54.8818  54.8858
    55.6933  61.5184

          k =-0.3750-0.1250-0.1250 (   512 PWs)   bands (ev):

    34.4085  39.0147  43.9453  43.9613  51.8143  51.8290  54.8796  54.8870
    55.6939  61.5184

          k = 0.3750 0.1250-0.1250 (   512 PWs)   bands (ev):

    34.4085  39.0147  43.9489  43.9577  51.8174  51.8254  54.8818  54.8858
    55.6934  61.5183

          k =-0.3750 0.1250 0.1250 (   512 PWs)   bands (ev):

    34.4085  39.0147  43.9452  43.9613  51.8144  51.8291  54.8797  54.8870
    55.6935  61.5184

          k =-0.1250 0.3750 0.1250 (   512 PWs)   bands (ev):

    34.4085  39.0146  43.9522  43.9546  51.8205  51.8227  54.8829  54.8841
    55.6933  61.5184

          k =-0.1250-0.3750-0.1250 (   512 PWs)   bands (ev):

    34.4085  39.0146  43.9487  43.9581  51.8172  51.8258  54.8814  54.8858
    55.6934  61.5184

          k = 0.1250 0.3750-0.1250 (   512 PWs)   bands (ev):

    34.4085  39.0146  43.9522  43.9546  51.8204  51.8227  54.8828  54.8840
    55.6936  61.5182

          k = 0.1250-0.3750 0.1250 (   512 PWs)   bands (ev):

    34.4085  39.0147  43.9487  43.9581  51.8172  51.8258  54.8814  54.8858
    55.6932  61.5184

          k =-0.1250-0.3750 0.3750 (   527 PWs)   bands (ev):

    37.4236  41.6669  41.6870  44.5505  50.4955  52.9189  52.9457  57.0471
    57.5705  60.7357

          k =-0.1250 0.3750-0.3750 (   527 PWs)   bands (ev):

    37.4236  41.6669  41.6870  44.5506  50.4955  52.9189  52.9457  57.0467
    57.5710  60.7390

          k = 0.1250-0.3750-0.3750 (   527 PWs)   bands (ev):

    37.4236  41.6585  41.6954  44.5507  50.4954  52.9078  52.9570  57.0473
    57.5699  60.7340

          k = 0.3750 0.1250-0.3750 (   527 PWs)   bands (ev):

    37.4236  41.6741  41.6797  44.5506  50.4953  52.9288  52.9362  57.0478
    57.5698  60.7382

          k =-0.3750-0.1250-0.3750 (   527 PWs)   bands (ev):

    37.4236  41.6661  41.6878  44.5505  50.4956  52.9181  52.9469  57.0480
    57.5694  60.7359

          k = 0.3750-0.1250 0.3750 (   527 PWs)   bands (ev):

    37.4236  41.6661  41.6878  44.5505  50.4954  52.9180  52.9468  57.0481
    57.5696  60.7361

          k =-0.3750 0.1250 0.3750 (   527 PWs)   bands (ev):

    37.4236  41.6741  41.6797  44.5506  50.4955  52.9289  52.9363  57.0474
    57.5698  60.7383

          k = 0.3750-0.3750 0.1250 (   527 PWs)   bands (ev):

    37.4237  41.6670  41.6869  44.5506  50.4952  52.9191  52.9456  57.0480
    57.5696  60.7359

          k =-0.3750-0.3750-0.1250 (   527 PWs)   bands (ev):

    37.4237  41.6552  41.6986  44.5505  50.4956  52.9035  52.9612  57.0459
    57.5716  60.7345

          k = 0.3750 0.3750-0.1250 (   527 PWs)   bands (ev):

    37.4237  41.6553  41.6986  44.5505  50.4954  52.9034  52.9612  57.0480
    57.5695  60.7338

          k =-0.3750 0.3750 0.1250 (   527 PWs)   bands (ev):

    37.4237  41.6669  41.6869  44.5506  50.4955  52.9192  52.9457  57.0434
    57.5741  60.7359

          k =-0.3750-0.3750 0.3750 (   519 PWs)   bands (ev):

    39.8890  43.9858  44.0159  44.0456  47.7852  47.8179  47.8508  51.6521
    66.9739  66.9772

          k =-0.3750 0.3750-0.3750 (   519 PWs)   bands (ev):

    39.8890  43.9936  44.0158  44.0379  47.7937  47.8180  47.8423  51.6521
    66.9749  66.9782

          k = 0.3750-0.3750-0.3750 (   519 PWs)   bands (ev):

    39.8890  43.9895  44.0158  44.0420  47.7893  47.8181  47.8469  51.6520
    66.9755  66.9783

     the Fermi energy is    52.6620 ev

!    total energy              =    -141.24230402 Ry
     Harris-Foulkes estimate   =    -141.24230415 Ry
     estimated scf accuracy    <       0.00000054 Ry

     total all-electron energy =     -1925.813432 Ry

     The total energy is the sum of the following terms:

     one-electron contribution =      58.67324621 Ry
     hartree contribution      =       0.21195992 Ry
     xc contribution           =     -17.28532320 Ry
     ewald contribution        =     -40.85514768 Ry
     one-center paw contrib.   =    -141.98641756 Ry
     smearing contrib. (-TS)   =      -0.00062171 Ry

     convergence has been achieved in  12 iterations

     Forces acting on atoms (cartesian axes, Ry/au):

     atom    1 type  1   force =     0.00199939   -0.00040149    0.01646502
     atom    2 type  1   force =    -0.00323978    0.00371540    0.01643799
     atom    3 type  1   force =    -0.00055156   -0.00069402   -0.01732978
     atom    4 type  1   force =     0.00179194   -0.00261988   -0.01557324

     Total force =     0.033518     Total SCF correction =     0.000009


     Computing stress (Cartesian axis) and pressure

          total   stress  (Ry/bohr**3)                   (kbar)     P=59670.55
   0.40563774   0.00000111   0.00000094      59671.36      0.16      0.14
   0.00000111   0.40562650  -0.00000110          0.16  59669.71     -0.16
   0.00000094  -0.00000110   0.40563252          0.14     -0.16  59670.59


     Writing output data file fe_scf_fcc_2.save/
 
     init_run     :      0.12s CPU      0.15s WALL (       1 calls)
     electrons    :      1.25s CPU      1.41s WALL (       1 calls)
     forces       :      0.01s CPU      0.01s WALL (       1 calls)
     stress       :      0.01s CPU      0.01s WALL (       1 calls)

     Called by init_run:
     wfcinit      :      0.06s CPU      0.07s WALL (       1 calls)
     potinit      :      0.01s CPU      0.02s WALL (       1 calls)
     hinit0       :      0.05s CPU      0.06s WALL (       1 calls)

     Called by electrons:
     c_bands      :      0.93s CPU      1.03s WALL (      12 calls)
     sum_band     :      0.14s CPU      0.17s WALL (      12 calls)
     v_of_rho     :      0.01s CPU      0.01s WALL (      13 calls)
     newd         :      0.00s CPU      0.00s WALL (      13 calls)
     PAW_pot      :      0.15s CPU      0.18s WALL (      13 calls)
     mix_rho      :      0.00s CPU      0.01s WALL (      12 calls)

     Called by c_bands:
     init_us_2    :      0.01s CPU      0.01s WALL (     864 calls)
     cegterg      :      0.90s CPU      1.00s WALL (     384 calls)

     Called by sum_band:
     sum_band:bec :      0.00s CPU      0.00s WALL (     384 calls)
     addusdens    :      0.00s CPU      0.00s WALL (      12 calls)

     Called by *egterg:
     h_psi        :      0.65s CPU      0.73s WALL (    1174 calls)
     s_psi        :      0.01s CPU      0.01s WALL (    1174 calls)
     g_psi        :      0.00s CPU      0.00s WALL (     758 calls)
     cdiaghg      :      0.18s CPU      0.20s WALL (    1142 calls)

     Called by h_psi:
     h_psi:pot    :      0.65s CPU      0.72s WALL (    1174 calls)
     h_psi:calbec :      0.06s CPU      0.07s WALL (    1174 calls)
     vloc_psi     :      0.58s CPU      0.64s WALL (    1174 calls)
     add_vuspsi   :      0.01s CPU      0.01s WALL (    1174 calls)

     General routines
     calbec       :      0.09s CPU      0.10s WALL (    1718 calls)
     fft          :      0.05s CPU      0.06s WALL (     169 calls)
     ffts         :      0.00s CPU      0.00s WALL (      12 calls)
     fftw         :      0.64s CPU      0.72s WALL (   24114 calls)
 
     Parallel routines
     fft_scatt_xy :      0.04s CPU      0.05s WALL (   24295 calls)
     fft_scatt_yz :      0.53s CPU      0.60s WALL (   24295 calls)
 
     PWSCF        :     2.01s CPU         2.41s WALL

 
   This run was terminated on:  19: 6:46  22Oct2019            

=------------------------------------------------------------------------------=
   JOB DONE.
=------------------------------------------------------------------------------=
