
     Program PWSCF v.6.3 starts on 22Oct2019 at 19: 3:45 

     This program is part of the open-source Quantum ESPRESSO suite
     for quantum simulation of materials; please cite
         "P. Giannozzi et al., J. Phys.:Condens. Matter 21 395502 (2009);
         "P. Giannozzi et al., J. Phys.:Condens. Matter 29 465901 (2017);
          URL http://www.quantum-espresso.org", 
     in publications or presentations arising from this work. More details at
     http://www.quantum-espresso.org/quote

     Parallel version (MPI & OpenMP), running on      20 processor cores
     Number of MPI processes:                20
     Threads/MPI process:                     1

     MPI processes distributed on     1 nodes
     R & G space division:  proc/nbgrp/npool/nimage =      20
     Reading input from /rds/homes/b/bxp912/jobs/20191022_test/wd/runpwscf/file_10079.in
Warning: card &IONS ignored
Warning: card ION_DYNAMICS = 'BFGS', ignored
Warning: card / ignored
Warning: card &CELL ignored
Warning: card CELL_DYNAMICS = 'BFGS', ignored
Warning: card CELL_FACTOR = 2.0, ignored
Warning: card PRESS = 0.0, ignored
Warning: card / ignored

     Current dimensions of program PWSCF are:
     Max number of different atomic species (ntypx) = 10
     Max number of k-points (npk) =  40000
     Max angular momentum in pseudopotentials (lmaxx) =  3
     Message from routine read_upf::
     Pseudo file /rds/homes/b/bxp912/pp/Al.pbe-nl-kjpaw_psl.1.0.0.UPF has been successfully fixed on the fly.
To avoid this message in the future you can permanently fix 
 your pseudo files following instructions given in: 
https://gitlab.com/QEF/q-e/blob/master/upftools/how_to_fix_upf.md
               file Al.pbe-nl-kjpaw_psl.1.0.0.UPF: wavefunction(s)  3S 3P renormalized

     Subspace diagonalization in iterative solution of the eigenvalue problem:
     a serial algorithm will be used

 
     Parallelization info
     --------------------
     sticks:   dense  smooth     PW     G-vecs:    dense   smooth      PW
     Min           7       7      5                   69       69      41
     Max           8       8      6                   74       74      44
     Sum         149     149    109                 1419     1419     847
 


     bravais-lattice index     =            0
     lattice parameter (alat)  =       4.0400  a.u.
     unit-cell volume          =      65.9393 (a.u.)^3
     number of atoms/cell      =            4
     number of atomic types    =            1
     number of electrons       =        12.00
     number of Kohn-Sham states=           10
     kinetic-energy cutoff     =      65.0000  Ry
     charge density cutoff     =     120.0000  Ry
     convergence threshold     =      1.0E-06
     mixing beta               =       0.1000
     number of iterations used =           10  TF        mixing
     Exchange-correlation      = SLA PW PBX PBC ( 1  4  3  4 0 0)

     celldm(1)=   4.040000  celldm(2)=   0.000000  celldm(3)=   0.000000
     celldm(4)=   0.000000  celldm(5)=   0.000000  celldm(6)=   0.000000

     crystal axes: (cart. coord. in units of alat)
               a(1) = (   1.000000   0.000000   0.000000 )  
               a(2) = (   0.000000   1.000000   0.000000 )  
               a(3) = (   0.000000   0.000000   1.000000 )  

     reciprocal axes: (cart. coord. in units 2 pi/alat)
               b(1) = (  1.000000  0.000000  0.000000 )  
               b(2) = (  0.000000  1.000000  0.000000 )  
               b(3) = (  0.000000  0.000000  1.000000 )  


     PseudoPot. # 1 for Al read from file:
     /rds/homes/b/bxp912/pp/Al.pbe-nl-kjpaw_psl.1.0.0.UPF
     MD5 check sum: 339dbea23cf3ab9a065ad45c0f9085d7
     Pseudo is Projector augmented-wave + core cor, Zval =  3.0
     Generated using "atomic" code by A. Dal Corso v.5.1
     Shape of augmentation charge: PSQ
     Using radial grid of 1135 points,  4 beta functions with: 
                l(1) =   0
                l(2) =   0
                l(3) =   1
                l(4) =   1
     Q(r) pseudized with 0 coefficients 


     atomic species   valence    mass     pseudopotential
        Al             3.00    26.98200     Al( 1.00)

     No symmetry found



   Cartesian axes

     site n.     atom                  positions (alat units)
         1           Al  tau(   1) = (  -0.0001235   0.0000359   0.0002572  )
         2           Al  tau(   2) = (   0.5003009   0.4992819   0.0002658  )
         3           Al  tau(   3) = (   0.4996490   0.0001153   0.5011170  )
         4           Al  tau(   4) = (  -0.0000756   0.5008267   0.5006943  )

     number of k points=    32  Marzari-Vanderbilt smearing, width (Ry)=  0.0200
                       cart. coord. in units 2pi/alat
        k(    1) = (   0.1250000   0.1250000   0.1250000), wk =   0.0625000
        k(    2) = (   0.1250000   0.1250000   0.3750000), wk =   0.0625000
        k(    3) = (   0.1250000   0.3750000   0.3750000), wk =   0.0625000
        k(    4) = (   0.3750000   0.3750000   0.3750000), wk =   0.0625000
        k(    5) = (  -0.1250000  -0.1250000   0.1250000), wk =   0.0625000
        k(    6) = (  -0.1250000   0.1250000  -0.1250000), wk =   0.0625000
        k(    7) = (   0.1250000  -0.1250000  -0.1250000), wk =   0.0625000
        k(    8) = (  -0.1250000  -0.1250000   0.3750000), wk =   0.0625000
        k(    9) = (  -0.1250000   0.1250000  -0.3750000), wk =   0.0625000
        k(   10) = (   0.1250000  -0.1250000  -0.3750000), wk =   0.0625000
        k(   11) = (   0.3750000  -0.1250000   0.1250000), wk =   0.0625000
        k(   12) = (  -0.3750000  -0.1250000  -0.1250000), wk =   0.0625000
        k(   13) = (   0.3750000   0.1250000  -0.1250000), wk =   0.0625000
        k(   14) = (  -0.3750000   0.1250000   0.1250000), wk =   0.0625000
        k(   15) = (  -0.1250000   0.3750000   0.1250000), wk =   0.0625000
        k(   16) = (  -0.1250000  -0.3750000  -0.1250000), wk =   0.0625000
        k(   17) = (   0.1250000   0.3750000  -0.1250000), wk =   0.0625000
        k(   18) = (   0.1250000  -0.3750000   0.1250000), wk =   0.0625000
        k(   19) = (  -0.1250000  -0.3750000   0.3750000), wk =   0.0625000
        k(   20) = (  -0.1250000   0.3750000  -0.3750000), wk =   0.0625000
        k(   21) = (   0.1250000  -0.3750000  -0.3750000), wk =   0.0625000
        k(   22) = (   0.3750000   0.1250000  -0.3750000), wk =   0.0625000
        k(   23) = (  -0.3750000  -0.1250000  -0.3750000), wk =   0.0625000
        k(   24) = (   0.3750000  -0.1250000   0.3750000), wk =   0.0625000
        k(   25) = (  -0.3750000   0.1250000   0.3750000), wk =   0.0625000
        k(   26) = (   0.3750000  -0.3750000   0.1250000), wk =   0.0625000
        k(   27) = (  -0.3750000  -0.3750000  -0.1250000), wk =   0.0625000
        k(   28) = (   0.3750000   0.3750000  -0.1250000), wk =   0.0625000
        k(   29) = (  -0.3750000   0.3750000   0.1250000), wk =   0.0625000
        k(   30) = (  -0.3750000  -0.3750000   0.3750000), wk =   0.0625000
        k(   31) = (  -0.3750000   0.3750000  -0.3750000), wk =   0.0625000
        k(   32) = (   0.3750000  -0.3750000  -0.3750000), wk =   0.0625000

     Dense  grid:     1419 G-vectors     FFT dimensions: (  15,  15,  15)

     Estimated max dynamical RAM per process >       0.50 MB

     Estimated total dynamical RAM >      10.06 MB

     Initial potential from superposition of free atoms

     starting charge   11.99084, renormalised to   12.00000
     Starting wfcs are   16 randomized atomic wfcs
     Checking if some PAW data can be deallocated... 

     total cpu time spent up to now is        0.6 secs

     Self-consistent Calculation

     iteration #  1     ecut=    65.00 Ry     beta= 0.10
     Davidson diagonalization with overlap
     ethr =  1.00E-02,  avg # of iterations =  4.9

     total cpu time spent up to now is        0.8 secs

     total energy              =    -141.65255574 Ry
     Harris-Foulkes estimate   =    -141.80683756 Ry
     estimated scf accuracy    <       0.18114492 Ry

     iteration #  2     ecut=    65.00 Ry     beta= 0.10
     Davidson diagonalization with overlap
     ethr =  1.51E-03,  avg # of iterations =  1.0

     total cpu time spent up to now is        1.0 secs

     total energy              =    -141.16248688 Ry
     Harris-Foulkes estimate   =    -141.65512181 Ry
     estimated scf accuracy    <       0.15211865 Ry

     iteration #  3     ecut=    65.00 Ry     beta= 0.10
     Davidson diagonalization with overlap
     ethr =  1.27E-03,  avg # of iterations =  2.0

     total cpu time spent up to now is        1.1 secs

     total energy              =    -141.24356100 Ry
     Harris-Foulkes estimate   =    -141.25632060 Ry
     estimated scf accuracy    <       0.01574926 Ry

     iteration #  4     ecut=    65.00 Ry     beta= 0.10
     Davidson diagonalization with overlap
     ethr =  1.31E-04,  avg # of iterations =  1.0

     total cpu time spent up to now is        1.2 secs

     total energy              =    -141.24125848 Ry
     Harris-Foulkes estimate   =    -141.24400847 Ry
     estimated scf accuracy    <       0.01251711 Ry

     iteration #  5     ecut=    65.00 Ry     beta= 0.10
     Davidson diagonalization with overlap
     ethr =  1.04E-04,  avg # of iterations =  1.0

     total cpu time spent up to now is        1.3 secs

     total energy              =    -141.24329545 Ry
     Harris-Foulkes estimate   =    -141.24234513 Ry
     estimated scf accuracy    <       0.00073970 Ry

     iteration #  6     ecut=    65.00 Ry     beta= 0.10
     Davidson diagonalization with overlap
     ethr =  6.16E-06,  avg # of iterations =  2.8

     total cpu time spent up to now is        1.4 secs

     total energy              =    -141.24354000 Ry
     Harris-Foulkes estimate   =    -141.24355956 Ry
     estimated scf accuracy    <       0.00009652 Ry

     iteration #  7     ecut=    65.00 Ry     beta= 0.10
     Davidson diagonalization with overlap
     ethr =  8.04E-07,  avg # of iterations =  1.1

     total cpu time spent up to now is        1.5 secs

     total energy              =    -141.24257605 Ry
     Harris-Foulkes estimate   =    -141.24354116 Ry
     estimated scf accuracy    <       0.00007802 Ry

     iteration #  8     ecut=    65.00 Ry     beta= 0.10
     Davidson diagonalization with overlap
     ethr =  6.50E-07,  avg # of iterations =  2.6

     total cpu time spent up to now is        1.6 secs

     total energy              =    -141.24265648 Ry
     Harris-Foulkes estimate   =    -141.24263836 Ry
     estimated scf accuracy    <       0.00000948 Ry

     iteration #  9     ecut=    65.00 Ry     beta= 0.10
     Davidson diagonalization with overlap
     ethr =  7.90E-08,  avg # of iterations =  1.0

     total cpu time spent up to now is        1.7 secs

     total energy              =    -141.24256005 Ry
     Harris-Foulkes estimate   =    -141.24265683 Ry
     estimated scf accuracy    <       0.00000754 Ry

     iteration # 10     ecut=    65.00 Ry     beta= 0.10
     Davidson diagonalization with overlap
     ethr =  6.28E-08,  avg # of iterations =  3.0

     total cpu time spent up to now is        1.8 secs

     total energy              =    -141.24257046 Ry
     Harris-Foulkes estimate   =    -141.24257057 Ry
     estimated scf accuracy    <       0.00000108 Ry

     iteration # 11     ecut=    65.00 Ry     beta= 0.10
     Davidson diagonalization with overlap
     ethr =  8.97E-09,  avg # of iterations =  1.1

     total cpu time spent up to now is        1.9 secs

     total energy              =    -141.24257008 Ry
     Harris-Foulkes estimate   =    -141.24257047 Ry
     estimated scf accuracy    <       0.00000105 Ry

     iteration # 12     ecut=    65.00 Ry     beta= 0.10
     Davidson diagonalization with overlap
     ethr =  8.75E-09,  avg # of iterations =  1.0

     total cpu time spent up to now is        2.0 secs

     End of self-consistent calculation

          k = 0.1250 0.1250 0.1250 (   585 PWs)   bands (ev):

    30.9158  41.4389  41.4569  41.4767  52.4298  52.4501  52.4702  54.9334
    54.9433  54.9533

          k = 0.1250 0.1250 0.3750 (   579 PWs)   bands (ev):

    34.4087  39.0151  43.9439  43.9627  51.8128  51.8301  54.8791  54.8877
    55.6931  61.5183

          k = 0.1250 0.3750 0.3750 (   589 PWs)   bands (ev):

    37.4239  41.6588  41.6957  44.5509  50.4953  52.9078  52.9570  57.0476
    57.5696  60.7361

          k = 0.3750 0.3750 0.3750 (   591 PWs)   bands (ev):

    39.8894  43.9783  44.0159  44.0540  47.7764  47.8178  47.8594  51.6518
    66.9747  66.9800

          k =-0.1250-0.1250 0.1250 (   585 PWs)   bands (ev):

    30.9158  41.4427  41.4571  41.4726  52.4341  52.4500  52.4660  54.9355
    54.9433  54.9512

          k =-0.1250 0.1250-0.1250 (   585 PWs)   bands (ev):

    30.9158  41.4462  41.4578  41.4684  52.4382  52.4501  52.4618  54.9375
    54.9433  54.9492

          k = 0.1250-0.1250-0.1250 (   585 PWs)   bands (ev):

    30.9158  41.4444  41.4574  41.4707  52.4360  52.4501  52.4641  54.9364
    54.9433  54.9503

          k =-0.1250-0.1250 0.3750 (   579 PWs)   bands (ev):

    34.4087  39.0152  43.9439  43.9627  51.8128  51.8301  54.8791  54.8878
    55.6928  61.5183

          k =-0.1250 0.1250-0.3750 (   579 PWs)   bands (ev):

    34.4087  39.0152  43.9490  43.9576  51.8175  51.8254  54.8815  54.8854
    55.6929  61.5182

          k = 0.1250-0.1250-0.3750 (   579 PWs)   bands (ev):

    34.4087  39.0151  43.9490  43.9576  51.8175  51.8254  54.8814  54.8854
    55.6931  61.5179

          k = 0.3750-0.1250 0.1250 (   579 PWs)   bands (ev):

    34.4087  39.0150  43.9490  43.9577  51.8173  51.8253  54.8816  54.8856
    55.6931  61.5183

          k =-0.3750-0.1250-0.1250 (   579 PWs)   bands (ev):

    34.4087  39.0150  43.9453  43.9614  51.8142  51.8289  54.8794  54.8868
    55.6937  61.5184

          k = 0.3750 0.1250-0.1250 (   579 PWs)   bands (ev):

    34.4087  39.0150  43.9490  43.9577  51.8172  51.8253  54.8816  54.8856
    55.6931  61.5182

          k =-0.3750 0.1250 0.1250 (   579 PWs)   bands (ev):

    34.4087  39.0151  43.9453  43.9613  51.8142  51.8289  54.8795  54.8868
    55.6933  61.5183

          k =-0.1250 0.3750 0.1250 (   579 PWs)   bands (ev):

    34.4087  39.0150  43.9523  43.9547  51.8204  51.8226  54.8828  54.8839
    55.6930  61.5183

          k =-0.1250-0.3750-0.1250 (   579 PWs)   bands (ev):

    34.4087  39.0149  43.9488  43.9582  51.8170  51.8257  54.8812  54.8856
    55.6931  61.5184

          k = 0.1250 0.3750-0.1250 (   579 PWs)   bands (ev):

    34.4087  39.0150  43.9523  43.9547  51.8203  51.8225  54.8826  54.8838
    55.6934  61.5183

          k = 0.1250-0.3750 0.1250 (   579 PWs)   bands (ev):

    34.4087  39.0150  43.9488  43.9582  51.8171  51.8257  54.8812  54.8856
    55.6930  61.5184

          k =-0.1250-0.3750 0.3750 (   589 PWs)   bands (ev):

    37.4239  41.6672  41.6874  44.5507  50.4954  52.9189  52.9457  57.0470
    57.5705  60.7380

          k =-0.1250 0.3750-0.3750 (   589 PWs)   bands (ev):

    37.4239  41.6672  41.6874  44.5507  50.4954  52.9189  52.9457  57.0466
    57.5710  60.7353

          k = 0.1250-0.3750-0.3750 (   589 PWs)   bands (ev):

    37.4239  41.6588  41.6957  44.5509  50.4953  52.9078  52.9570  57.0472
    57.5698  60.7335

          k = 0.3750 0.1250-0.3750 (   589 PWs)   bands (ev):

    37.4239  41.6744  41.6800  44.5507  50.4953  52.9288  52.9362  57.0476
    57.5698  60.7384

          k =-0.3750-0.1250-0.3750 (   589 PWs)   bands (ev):

    37.4239  41.6664  41.6881  44.5506  50.4955  52.9180  52.9469  57.0478
    57.5694  60.7363

          k = 0.3750-0.1250 0.3750 (   589 PWs)   bands (ev):

    37.4239  41.6664  41.6881  44.5507  50.4953  52.9179  52.9468  57.0480
    57.5695  60.7356

          k =-0.3750 0.1250 0.3750 (   589 PWs)   bands (ev):

    37.4239  41.6744  41.6800  44.5507  50.4954  52.9288  52.9362  57.0473
    57.5698  60.7385

          k = 0.3750-0.3750 0.1250 (   589 PWs)   bands (ev):

    37.4240  41.6673  41.6872  44.5508  50.4951  52.9191  52.9455  57.0479
    57.5696  60.7381

          k =-0.3750-0.3750-0.1250 (   589 PWs)   bands (ev):

    37.4240  41.6556  41.6989  44.5507  50.4955  52.9035  52.9612  57.0458
    57.5715  60.7318

          k = 0.3750 0.3750-0.1250 (   589 PWs)   bands (ev):

    37.4240  41.6556  41.6990  44.5507  50.4953  52.9034  52.9612  57.0479
    57.5695  60.7332

          k =-0.3750 0.3750 0.1250 (   589 PWs)   bands (ev):

    37.4240  41.6673  41.6872  44.5508  50.4954  52.9192  52.9457  57.0432
    57.5741  60.7351

          k =-0.3750-0.3750 0.3750 (   591 PWs)   bands (ev):

    39.8894  43.9862  44.0160  44.0460  47.7851  47.8178  47.8507  51.6519
    66.9742  66.9790

          k =-0.3750 0.3750-0.3750 (   591 PWs)   bands (ev):

    39.8893  43.9938  44.0162  44.0381  47.7936  47.8178  47.8421  51.6519
    66.9752  66.9786

          k = 0.3750-0.3750-0.3750 (   591 PWs)   bands (ev):

    39.8893  43.9898  44.0160  44.0423  47.7892  47.8179  47.8468  51.6518
    66.9755  66.9781

     the Fermi energy is    52.6619 ev

!    total energy              =    -141.24257002 Ry
     Harris-Foulkes estimate   =    -141.24257011 Ry
     estimated scf accuracy    <       0.00000053 Ry

     total all-electron energy =     -1925.813698 Ry

     The total energy is the sum of the following terms:

     one-electron contribution =      58.67278459 Ry
     hartree contribution      =       0.21194635 Ry
     xc contribution           =     -17.28521361 Ry
     ewald contribution        =     -40.85514764 Ry
     one-center paw contrib.   =    -141.98631999 Ry
     smearing contrib. (-TS)   =      -0.00061972 Ry

     convergence has been achieved in  12 iterations

     Forces acting on atoms (cartesian axes, Ry/au):

     atom    1 type  1   force =     0.00200735   -0.00038040    0.01642955
     atom    2 type  1   force =    -0.00322915    0.00370328    0.01640345
     atom    3 type  1   force =    -0.00057029   -0.00070493   -0.01727887
     atom    4 type  1   force =     0.00179208   -0.00261796   -0.01555414

     Total force =     0.033447     Total SCF correction =     0.000005


     Computing stress (Cartesian axis) and pressure

          total   stress  (Ry/bohr**3)                   (kbar)     P=59670.87
   0.40563973   0.00000108   0.00000086      59671.65      0.16      0.13
   0.00000108   0.40562867  -0.00000119          0.16  59670.03     -0.17
   0.00000086  -0.00000119   0.40563478          0.13     -0.17  59670.93


     Writing output data file fe_scf_fcc_2.save/
 
     init_run     :      0.09s CPU      0.13s WALL (       1 calls)
     electrons    :      1.22s CPU      1.36s WALL (       1 calls)
     forces       :      0.01s CPU      0.01s WALL (       1 calls)
     stress       :      0.01s CPU      0.01s WALL (       1 calls)

     Called by init_run:
     wfcinit      :      0.04s CPU      0.05s WALL (       1 calls)
     potinit      :      0.02s CPU      0.02s WALL (       1 calls)
     hinit0       :      0.02s CPU      0.06s WALL (       1 calls)

     Called by electrons:
     c_bands      :      0.91s CPU      1.01s WALL (      12 calls)
     sum_band     :      0.14s CPU      0.17s WALL (      12 calls)
     v_of_rho     :      0.01s CPU      0.01s WALL (      13 calls)
     newd         :      0.00s CPU      0.00s WALL (      13 calls)
     PAW_pot      :      0.15s CPU      0.17s WALL (      13 calls)
     mix_rho      :      0.00s CPU      0.00s WALL (      12 calls)

     Called by c_bands:
     init_us_2    :      0.01s CPU      0.01s WALL (     864 calls)
     cegterg      :      0.88s CPU      0.97s WALL (     384 calls)

     Called by sum_band:
     sum_band:bec :      0.00s CPU      0.00s WALL (     384 calls)
     addusdens    :      0.00s CPU      0.00s WALL (      12 calls)

     Called by *egterg:
     h_psi        :      0.62s CPU      0.69s WALL (    1131 calls)
     s_psi        :      0.01s CPU      0.01s WALL (    1131 calls)
     g_psi        :      0.00s CPU      0.00s WALL (     715 calls)
     cdiaghg      :      0.18s CPU      0.20s WALL (    1099 calls)

     Called by h_psi:
     h_psi:pot    :      0.61s CPU      0.68s WALL (    1131 calls)
     h_psi:calbec :      0.06s CPU      0.06s WALL (    1131 calls)
     vloc_psi     :      0.54s CPU      0.60s WALL (    1131 calls)
     add_vuspsi   :      0.01s CPU      0.01s WALL (    1131 calls)

     General routines
     calbec       :      0.08s CPU      0.10s WALL (    1675 calls)
     fft          :      0.03s CPU      0.06s WALL (     169 calls)
     ffts         :      0.00s CPU      0.00s WALL (      12 calls)
     fftw         :      0.61s CPU      0.69s WALL (   23768 calls)
 
     Parallel routines
     fft_scatt_xy :      0.04s CPU      0.04s WALL (   23949 calls)
     fft_scatt_yz :      0.50s CPU      0.57s WALL (   23949 calls)
 
     PWSCF        :     1.85s CPU         2.31s WALL

 
   This run was terminated on:  19: 3:48  22Oct2019            

=------------------------------------------------------------------------------=
   JOB DONE.
=------------------------------------------------------------------------------=
