
     Program PWSCF v.6.3 starts on 20Oct2019 at  1: 8:10 

     This program is part of the open-source Quantum ESPRESSO suite
     for quantum simulation of materials; please cite
         "P. Giannozzi et al., J. Phys.:Condens. Matter 21 395502 (2009);
         "P. Giannozzi et al., J. Phys.:Condens. Matter 29 465901 (2017);
          URL http://www.quantum-espresso.org", 
     in publications or presentations arising from this work. More details at
     http://www.quantum-espresso.org/quote

     Parallel version (MPI), running on     1 processors

     MPI processes distributed on     1 nodes
     Reading input from /cloud/Code/python/py_pwscf_converge/src/example/wd/runpwscf/file_10044.in
Warning: card &IONS ignored
Warning: card ION_DYNAMICS = 'BFGS', ignored
Warning: card / ignored
Warning: card &CELL ignored
Warning: card CELL_DYNAMICS = 'BFGS', ignored
Warning: card CELL_FACTOR = 2.0, ignored
Warning: card PRESS = 0.0, ignored
Warning: card / ignored

     Current dimensions of program PWSCF are:
     Max number of different atomic species (ntypx) = 10
     Max number of k-points (npk) =  40000
     Max angular momentum in pseudopotentials (lmaxx) =  3
               file Al.pbe-nl-kjpaw_psl.1.0.0.UPF: wavefunction(s)  3S 3P renormalized

     Subspace diagonalization in iterative solution of the eigenvalue problem:
     a serial algorithm will be used


     G-vector sticks info
     --------------------
     sticks:   dense  smooth     PW     G-vecs:    dense   smooth      PW
     Sum         241     241    129                 2721     2721    1045



     bravais-lattice index     =            0
     lattice parameter (alat)  =       4.0400  a.u.
     unit-cell volume          =      65.9393 (a.u.)^3
     number of atoms/cell      =            4
     number of atomic types    =            1
     number of electrons       =        12.00
     number of Kohn-Sham states=           10
     kinetic-energy cutoff     =      80.0000  Ry
     charge density cutoff     =     180.0000  Ry
     convergence threshold     =      1.0E-06
     mixing beta               =       0.1000
     number of iterations used =           10  TF        mixing
     Exchange-correlation      = SLA PW PBX PBC ( 1  4  3  4 0 0)

     celldm(1)=   4.040000  celldm(2)=   0.000000  celldm(3)=   0.000000
     celldm(4)=   0.000000  celldm(5)=   0.000000  celldm(6)=   0.000000

     crystal axes: (cart. coord. in units of alat)
               a(1) = (   1.000000   0.000000   0.000000 )  
               a(2) = (   0.000000   1.000000   0.000000 )  
               a(3) = (   0.000000   0.000000   1.000000 )  

     reciprocal axes: (cart. coord. in units 2 pi/alat)
               b(1) = (  1.000000  0.000000  0.000000 )  
               b(2) = (  0.000000  1.000000  0.000000 )  
               b(3) = (  0.000000  0.000000  1.000000 )  


     PseudoPot. # 1 for Al read from file:
     /opt/pp/Al.pbe-nl-kjpaw_psl.1.0.0.UPF
     MD5 check sum: 1b67f78b73fe58c7924490f171ce8a1e
     Pseudo is Projector augmented-wave + core cor, Zval =  3.0
     Generated using "atomic" code by A. Dal Corso v.6.3
     Shape of augmentation charge: PSQ
     Using radial grid of 1135 points,  4 beta functions with: 
                l(1) =   0
                l(2) =   0
                l(3) =   1
                l(4) =   1
     Q(r) pseudized with 0 coefficients 


     atomic species   valence    mass     pseudopotential
        Al             3.00    26.98200     Al( 1.00)

     No symmetry found



   Cartesian axes

     site n.     atom                  positions (alat units)
         1           Al  tau(   1) = (  -0.0001235   0.0000359   0.0002572  )
         2           Al  tau(   2) = (   0.5003009   0.4992819   0.0002658  )
         3           Al  tau(   3) = (   0.4996490   0.0001153   0.5011170  )
         4           Al  tau(   4) = (  -0.0000756   0.5008267   0.5006943  )

     number of k points=    32  Marzari-Vanderbilt smearing, width (Ry)=  0.0200
                       cart. coord. in units 2pi/alat
        k(    1) = (   0.1250000   0.1250000   0.1250000), wk =   0.0625000
        k(    2) = (   0.1250000   0.1250000   0.3750000), wk =   0.0625000
        k(    3) = (   0.1250000   0.3750000   0.3750000), wk =   0.0625000
        k(    4) = (   0.3750000   0.3750000   0.3750000), wk =   0.0625000
        k(    5) = (  -0.1250000  -0.1250000   0.1250000), wk =   0.0625000
        k(    6) = (  -0.1250000   0.1250000  -0.1250000), wk =   0.0625000
        k(    7) = (   0.1250000  -0.1250000  -0.1250000), wk =   0.0625000
        k(    8) = (  -0.1250000  -0.1250000   0.3750000), wk =   0.0625000
        k(    9) = (  -0.1250000   0.1250000  -0.3750000), wk =   0.0625000
        k(   10) = (   0.1250000  -0.1250000  -0.3750000), wk =   0.0625000
        k(   11) = (   0.3750000  -0.1250000   0.1250000), wk =   0.0625000
        k(   12) = (  -0.3750000  -0.1250000  -0.1250000), wk =   0.0625000
        k(   13) = (   0.3750000   0.1250000  -0.1250000), wk =   0.0625000
        k(   14) = (  -0.3750000   0.1250000   0.1250000), wk =   0.0625000
        k(   15) = (  -0.1250000   0.3750000   0.1250000), wk =   0.0625000
        k(   16) = (  -0.1250000  -0.3750000  -0.1250000), wk =   0.0625000
        k(   17) = (   0.1250000   0.3750000  -0.1250000), wk =   0.0625000
        k(   18) = (   0.1250000  -0.3750000   0.1250000), wk =   0.0625000
        k(   19) = (  -0.1250000  -0.3750000   0.3750000), wk =   0.0625000
        k(   20) = (  -0.1250000   0.3750000  -0.3750000), wk =   0.0625000
        k(   21) = (   0.1250000  -0.3750000  -0.3750000), wk =   0.0625000
        k(   22) = (   0.3750000   0.1250000  -0.3750000), wk =   0.0625000
        k(   23) = (  -0.3750000  -0.1250000  -0.3750000), wk =   0.0625000
        k(   24) = (   0.3750000  -0.1250000   0.3750000), wk =   0.0625000
        k(   25) = (  -0.3750000   0.1250000   0.3750000), wk =   0.0625000
        k(   26) = (   0.3750000  -0.3750000   0.1250000), wk =   0.0625000
        k(   27) = (  -0.3750000  -0.3750000  -0.1250000), wk =   0.0625000
        k(   28) = (   0.3750000   0.3750000  -0.1250000), wk =   0.0625000
        k(   29) = (  -0.3750000   0.3750000   0.1250000), wk =   0.0625000
        k(   30) = (  -0.3750000  -0.3750000   0.3750000), wk =   0.0625000
        k(   31) = (  -0.3750000   0.3750000  -0.3750000), wk =   0.0625000
        k(   32) = (   0.3750000  -0.3750000  -0.3750000), wk =   0.0625000

     Dense  grid:     2721 G-vectors     FFT dimensions: (  18,  18,  18)

     Estimated max dynamical RAM per process >       8.52 MB

     Initial potential from superposition of free atoms

     starting charge   11.99084, renormalised to   12.00000
     Starting wfcs are   16 randomized atomic wfcs
     Checking if some PAW data can be deallocated... 

     total cpu time spent up to now is        1.2 secs

     Self-consistent Calculation

     iteration #  1     ecut=    80.00 Ry     beta= 0.10
     Davidson diagonalization with overlap
     ethr =  1.00E-02,  avg # of iterations =  4.9

     total cpu time spent up to now is        2.1 secs

     total energy              =    -141.65278072 Ry
     Harris-Foulkes estimate   =    -141.80706173 Ry
     estimated scf accuracy    <       0.18114826 Ry

     iteration #  2     ecut=    80.00 Ry     beta= 0.10
     Davidson diagonalization with overlap
     ethr =  1.51E-03,  avg # of iterations =  1.0

     total cpu time spent up to now is        2.7 secs

     total energy              =    -141.16265821 Ry
     Harris-Foulkes estimate   =    -141.65534978 Ry
     estimated scf accuracy    <       0.15204402 Ry

     iteration #  3     ecut=    80.00 Ry     beta= 0.10
     Davidson diagonalization with overlap
     ethr =  1.27E-03,  avg # of iterations =  2.0

     total cpu time spent up to now is        3.4 secs

     total energy              =    -141.24392909 Ry
     Harris-Foulkes estimate   =    -141.25609872 Ry
     estimated scf accuracy    <       0.01568478 Ry

     iteration #  4     ecut=    80.00 Ry     beta= 0.10
     Davidson diagonalization with overlap
     ethr =  1.31E-04,  avg # of iterations =  1.0

     total cpu time spent up to now is        4.0 secs

     total energy              =    -141.24158498 Ry
     Harris-Foulkes estimate   =    -141.24436084 Ry
     estimated scf accuracy    <       0.01252172 Ry

     iteration #  5     ecut=    80.00 Ry     beta= 0.10
     Davidson diagonalization with overlap
     ethr =  1.04E-04,  avg # of iterations =  1.0

     total cpu time spent up to now is        4.6 secs

     total energy              =    -141.24348691 Ry
     Harris-Foulkes estimate   =    -141.24265778 Ry
     estimated scf accuracy    <       0.00079316 Ry

     iteration #  6     ecut=    80.00 Ry     beta= 0.10
     Davidson diagonalization with overlap
     ethr =  6.61E-06,  avg # of iterations =  2.8

     total cpu time spent up to now is        5.3 secs

     total energy              =    -141.24375406 Ry
     Harris-Foulkes estimate   =    -141.24375114 Ry
     estimated scf accuracy    <       0.00011253 Ry

     iteration #  7     ecut=    80.00 Ry     beta= 0.10
     Davidson diagonalization with overlap
     ethr =  9.38E-07,  avg # of iterations =  1.2

     total cpu time spent up to now is        5.9 secs

     total energy              =    -141.24302348 Ry
     Harris-Foulkes estimate   =    -141.24375558 Ry
     estimated scf accuracy    <       0.00010431 Ry

     iteration #  8     ecut=    80.00 Ry     beta= 0.10
     Davidson diagonalization with overlap
     ethr =  8.69E-07,  avg # of iterations =  2.0

     total cpu time spent up to now is        6.6 secs

     total energy              =    -141.24297799 Ry
     Harris-Foulkes estimate   =    -141.24305651 Ry
     estimated scf accuracy    <       0.00007801 Ry

     iteration #  9     ecut=    80.00 Ry     beta= 0.10
     Davidson diagonalization with overlap
     ethr =  6.50E-07,  avg # of iterations =  1.0

     total cpu time spent up to now is        7.1 secs

     total energy              =    -141.24292730 Ry
     Harris-Foulkes estimate   =    -141.24298070 Ry
     estimated scf accuracy    <       0.00000850 Ry

     iteration # 10     ecut=    80.00 Ry     beta= 0.10
     Davidson diagonalization with overlap
     ethr =  7.08E-08,  avg # of iterations =  2.2

     total cpu time spent up to now is        7.8 secs

     total energy              =    -141.24286858 Ry
     Harris-Foulkes estimate   =    -141.24292909 Ry
     estimated scf accuracy    <       0.00000202 Ry

     iteration # 11     ecut=    80.00 Ry     beta= 0.10
     Davidson diagonalization with overlap
     ethr =  1.69E-08,  avg # of iterations =  3.0

     total cpu time spent up to now is        8.6 secs

     total energy              =    -141.24287453 Ry
     Harris-Foulkes estimate   =    -141.24287390 Ry
     estimated scf accuracy    <       0.00000107 Ry

     iteration # 12     ecut=    80.00 Ry     beta= 0.10
     Davidson diagonalization with overlap
     ethr =  8.89E-09,  avg # of iterations =  1.1

     total cpu time spent up to now is        9.2 secs

     total energy              =    -141.24287358 Ry
     Harris-Foulkes estimate   =    -141.24287457 Ry
     estimated scf accuracy    <       0.00000107 Ry

     iteration # 13     ecut=    80.00 Ry     beta= 0.10
     Davidson diagonalization with overlap
     ethr =  8.89E-09,  avg # of iterations =  2.0

     total cpu time spent up to now is        9.8 secs

     End of self-consistent calculation

          k = 0.1250 0.1250 0.1250 (   793 PWs)   bands (ev):

    30.9164  41.4380  41.4571  41.4759  52.4292  52.4495  52.4697  54.9333
    54.9431  54.9532

          k = 0.1250 0.1250 0.3750 (   798 PWs)   bands (ev):

    34.4090  39.0151  43.9435  43.9624  51.8126  51.8298  54.8788  54.8875
    55.6925  61.5178

          k = 0.1250 0.3750 0.3750 (   802 PWs)   bands (ev):

    37.4241  41.6587  41.6957  44.5507  50.4949  52.9073  52.9566  57.0471
    57.5691  60.7351

          k = 0.3750 0.3750 0.3750 (   795 PWs)   bands (ev):

    39.8895  43.9780  44.0160  44.0538  47.7760  47.8176  47.8591  51.6514
    66.9742  66.9774

          k =-0.1250-0.1250 0.1250 (   793 PWs)   bands (ev):

    30.9164  41.4420  41.4571  41.4719  52.4335  52.4494  52.4654  54.9353
    54.9432  54.9511

          k =-0.1250 0.1250-0.1250 (   793 PWs)   bands (ev):

    30.9164  41.4459  41.4570  41.4680  52.4376  52.4495  52.4612  54.9374
    54.9432  54.9490

          k = 0.1250-0.1250-0.1250 (   793 PWs)   bands (ev):

    30.9164  41.4438  41.4571  41.4701  52.4354  52.4496  52.4635  54.9363
    54.9432  54.9501

          k =-0.1250-0.1250 0.3750 (   798 PWs)   bands (ev):

    34.4090  39.0151  43.9435  43.9623  51.8126  51.8299  54.8789  54.8875
    55.6923  61.5178

          k =-0.1250 0.1250-0.3750 (   798 PWs)   bands (ev):

    34.4090  39.0151  43.9486  43.9573  51.8172  51.8251  54.8812  54.8852
    55.6924  61.5177

          k = 0.1250-0.1250-0.3750 (   798 PWs)   bands (ev):

    34.4090  39.0151  43.9487  43.9573  51.8172  51.8251  54.8812  54.8852
    55.6926  61.5172

          k = 0.3750-0.1250 0.1250 (   798 PWs)   bands (ev):

    34.4091  39.0150  43.9486  43.9574  51.8170  51.8250  54.8814  54.8854
    55.6925  61.5177

          k =-0.3750-0.1250-0.1250 (   798 PWs)   bands (ev):

    34.4091  39.0150  43.9450  43.9610  51.8139  51.8286  54.8791  54.8865
    55.6931  61.5178

          k = 0.3750 0.1250-0.1250 (   798 PWs)   bands (ev):

    34.4091  39.0150  43.9486  43.9574  51.8170  51.8250  54.8814  54.8854
    55.6926  61.5179

          k =-0.3750 0.1250 0.1250 (   798 PWs)   bands (ev):

    34.4091  39.0150  43.9449  43.9610  51.8140  51.8287  54.8792  54.8866
    55.6928  61.5178

          k =-0.1250 0.3750 0.1250 (   798 PWs)   bands (ev):

    34.4090  39.0149  43.9519  43.9543  51.8201  51.8223  54.8825  54.8837
    55.6925  61.5178

          k =-0.1250-0.3750-0.1250 (   798 PWs)   bands (ev):

    34.4090  39.0149  43.9484  43.9579  51.8168  51.8254  54.8810  54.8854
    55.6926  61.5179

          k = 0.1250 0.3750-0.1250 (   798 PWs)   bands (ev):

    34.4090  39.0149  43.9519  43.9543  51.8201  51.8223  54.8824  54.8836
    55.6928  61.5180

          k = 0.1250-0.3750 0.1250 (   798 PWs)   bands (ev):

    34.4090  39.0149  43.9484  43.9578  51.8168  51.8255  54.8810  54.8853
    55.6924  61.5179

          k =-0.1250-0.3750 0.3750 (   802 PWs)   bands (ev):

    37.4241  41.6672  41.6873  44.5506  50.4950  52.9184  52.9453  57.0465
    57.5701  60.7371

          k =-0.1250 0.3750-0.3750 (   802 PWs)   bands (ev):

    37.4241  41.6672  41.6873  44.5506  50.4950  52.9184  52.9452  57.0461
    57.5706  60.7348

          k = 0.1250-0.3750-0.3750 (   802 PWs)   bands (ev):

    37.4241  41.6587  41.6957  44.5507  50.4949  52.9073  52.9566  57.0467
    57.5694  60.7338

          k = 0.3750 0.1250-0.3750 (   802 PWs)   bands (ev):

    37.4241  41.6744  41.6800  44.5506  50.4949  52.9283  52.9357  57.0472
    57.5694  60.7374

          k =-0.3750-0.1250-0.3750 (   802 PWs)   bands (ev):

    37.4241  41.6663  41.6881  44.5505  50.4951  52.9176  52.9465  57.0474
    57.5689  60.7347

          k = 0.3750-0.1250 0.3750 (   802 PWs)   bands (ev):

    37.4241  41.6664  41.6881  44.5505  50.4949  52.9175  52.9464  57.0475
    57.5691  60.7345

          k =-0.3750 0.1250 0.3750 (   802 PWs)   bands (ev):

    37.4241  41.6744  41.6800  44.5506  50.4950  52.9284  52.9358  57.0468
    57.5694  60.7375

          k = 0.3750-0.3750 0.1250 (   802 PWs)   bands (ev):

    37.4241  41.6673  41.6871  44.5506  50.4947  52.9186  52.9451  57.0474
    57.5692  60.7373

          k =-0.3750-0.3750-0.1250 (   802 PWs)   bands (ev):

    37.4242  41.6555  41.6989  44.5505  50.4951  52.9030  52.9608  57.0453
    57.5711  60.7344

          k = 0.3750 0.3750-0.1250 (   802 PWs)   bands (ev):

    37.4242  41.6555  41.6989  44.5506  50.4949  52.9029  52.9607  57.0474
    57.5691  60.7317

          k =-0.3750 0.3750 0.1250 (   802 PWs)   bands (ev):

    37.4241  41.6673  41.6871  44.5506  50.4950  52.9188  52.9452  57.0428
    57.5737  60.7359

          k =-0.3750-0.3750 0.3750 (   795 PWs)   bands (ev):

    39.8894  43.9860  44.0161  44.0458  47.7848  47.8175  47.8504  51.6516
    66.9749  66.9785

          k =-0.3750 0.3750-0.3750 (   795 PWs)   bands (ev):

    39.8894  43.9938  44.0160  44.0380  47.7933  47.8175  47.8418  51.6516
    66.9744  66.9778

          k = 0.3750-0.3750-0.3750 (   795 PWs)   bands (ev):

    39.8894  43.9896  44.0159  44.0422  47.7888  47.8176  47.8465  51.6515
    66.9754  66.9772

     the Fermi energy is    52.6614 ev

!    total energy              =    -141.24287354 Ry
     Harris-Foulkes estimate   =    -141.24287383 Ry
     estimated scf accuracy    <       0.00000005 Ry

     total all-electron energy =     -1925.813996 Ry

     The total energy is the sum of the following terms:

     one-electron contribution =      58.67271498 Ry
     hartree contribution      =       0.21193642 Ry
     xc contribution           =     -17.28534746 Ry
     ewald contribution        =     -40.85514779 Ry
     one-center paw contrib.   =    -141.98641216 Ry
     smearing contrib. (-TS)   =      -0.00061754 Ry

     convergence has been achieved in  13 iterations

     Forces acting on atoms (cartesian axes, Ry/au):

     atom    1 type  1   force =     0.00201613   -0.00037093    0.01643360
     atom    2 type  1   force =    -0.00323066    0.00371443    0.01641967
     atom    3 type  1   force =    -0.00057344   -0.00071166   -0.01728932
     atom    4 type  1   force =     0.00178797   -0.00263185   -0.01556395

     Total force =     0.033470     Total SCF correction =     0.000004


     Computing stress (Cartesian axis) and pressure

          total   stress  (Ry/bohr**3)                   (kbar)     P=59673.01
   0.40565434   0.00000098   0.00000069      59673.80      0.14      0.10
   0.00000098   0.40564309  -0.00000110          0.14  59672.15     -0.16
   0.00000069  -0.00000110   0.40564942          0.10     -0.16  59673.08


     Writing output data file fe_scf_fcc_2.save/

     init_run     :      0.72s CPU      0.75s WALL (       1 calls)
     electrons    :      8.49s CPU      8.67s WALL (       1 calls)
     forces       :      0.06s CPU      0.07s WALL (       1 calls)
     stress       :      0.20s CPU      0.20s WALL (       1 calls)

     Called by init_run:
     wfcinit      :      0.22s CPU      0.23s WALL (       1 calls)
     potinit      :      0.23s CPU      0.25s WALL (       1 calls)
     hinit0       :      0.25s CPU      0.25s WALL (       1 calls)

     Called by electrons:
     c_bands      :      4.37s CPU      4.45s WALL (      13 calls)
     sum_band     :      0.91s CPU      0.91s WALL (      13 calls)
     v_of_rho     :      0.07s CPU      0.06s WALL (      14 calls)
     newd         :      0.05s CPU      0.06s WALL (      14 calls)
     PAW_pot      :      3.32s CPU      3.42s WALL (      14 calls)
     mix_rho      :      0.00s CPU      0.01s WALL (      13 calls)

     Called by c_bands:
     init_us_2    :      0.21s CPU      0.23s WALL (     928 calls)
     cegterg      :      4.02s CPU      4.09s WALL (     416 calls)

     Called by sum_band:
     sum_band:bec :      0.00s CPU      0.00s WALL (     416 calls)
     addusdens    :      0.03s CPU      0.03s WALL (      13 calls)

     Called by *egterg:
     h_psi        :      3.28s CPU      3.30s WALL (    1254 calls)
     s_psi        :      0.16s CPU      0.19s WALL (    1254 calls)
     g_psi        :      0.03s CPU      0.04s WALL (     806 calls)
     cdiaghg      :      0.22s CPU      0.20s WALL (    1222 calls)

     Called by h_psi:
     h_psi:pot    :      3.26s CPU      3.28s WALL (    1254 calls)
     h_psi:calbec :      0.18s CPU      0.20s WALL (    1254 calls)
     vloc_psi     :      2.82s CPU      2.87s WALL (    1254 calls)
     add_vuspsi   :      0.26s CPU      0.20s WALL (    1254 calls)

     General routines
     calbec       :      0.29s CPU      0.30s WALL (    1830 calls)
     fft          :      0.02s CPU      0.03s WALL (     180 calls)
     ffts         :      0.00s CPU      0.00s WALL (      13 calls)
     fftw         :      3.24s CPU      3.30s WALL (   25658 calls)

     Parallel routines

     PWSCF        :     9.88s CPU        10.12s WALL


   This run was terminated on:   1: 8:20  20Oct2019            

=------------------------------------------------------------------------------=
   JOB DONE.
=------------------------------------------------------------------------------=
