
     Program PWSCF v.6.3 starts on 19Oct2019 at 18: 8:19 

     This program is part of the open-source Quantum ESPRESSO suite
     for quantum simulation of materials; please cite
         "P. Giannozzi et al., J. Phys.:Condens. Matter 21 395502 (2009);
         "P. Giannozzi et al., J. Phys.:Condens. Matter 29 465901 (2017);
          URL http://www.quantum-espresso.org", 
     in publications or presentations arising from this work. More details at
     http://www.quantum-espresso.org/quote

     Parallel version (MPI), running on     1 processors

     MPI processes distributed on     1 nodes
     Reading input from /cloud/Code/python/py_pwscf_converge/src/example/wd/runpwscf/file_10007.in
Warning: card &IONS ignored
Warning: card ION_DYNAMICS = 'BFGS', ignored
Warning: card / ignored
Warning: card &CELL ignored
Warning: card CELL_DYNAMICS = 'BFGS', ignored
Warning: card CELL_FACTOR = 2.0, ignored
Warning: card PRESS = 0.0, ignored
Warning: card / ignored

     Current dimensions of program PWSCF are:
     Max number of different atomic species (ntypx) = 10
     Max number of k-points (npk) =  40000
     Max angular momentum in pseudopotentials (lmaxx) =  3
               file Al.pbe-nl-kjpaw_psl.1.0.0.UPF: wavefunction(s)  3S 3P renormalized

     Subspace diagonalization in iterative solution of the eigenvalue problem:
     a serial algorithm will be used


     G-vector sticks info
     --------------------
     sticks:   dense  smooth     PW     G-vecs:    dense   smooth      PW
     Sum         305     305     97                 4139     4139     739



     bravais-lattice index     =            0
     lattice parameter (alat)  =       4.0400  a.u.
     unit-cell volume          =      65.9393 (a.u.)^3
     number of atoms/cell      =            4
     number of atomic types    =            1
     number of electrons       =        12.00
     number of Kohn-Sham states=           10
     kinetic-energy cutoff     =      60.0000  Ry
     charge density cutoff     =     240.0000  Ry
     convergence threshold     =      1.0E-06
     mixing beta               =       0.1000
     number of iterations used =           10  TF        mixing
     Exchange-correlation      = SLA PW PBX PBC ( 1  4  3  4 0 0)

     celldm(1)=   4.040000  celldm(2)=   0.000000  celldm(3)=   0.000000
     celldm(4)=   0.000000  celldm(5)=   0.000000  celldm(6)=   0.000000

     crystal axes: (cart. coord. in units of alat)
               a(1) = (   1.000000   0.000000   0.000000 )  
               a(2) = (   0.000000   1.000000   0.000000 )  
               a(3) = (   0.000000   0.000000   1.000000 )  

     reciprocal axes: (cart. coord. in units 2 pi/alat)
               b(1) = (  1.000000  0.000000  0.000000 )  
               b(2) = (  0.000000  1.000000  0.000000 )  
               b(3) = (  0.000000  0.000000  1.000000 )  


     PseudoPot. # 1 for Al read from file:
     /opt/pp/Al.pbe-nl-kjpaw_psl.1.0.0.UPF
     MD5 check sum: 1b67f78b73fe58c7924490f171ce8a1e
     Pseudo is Projector augmented-wave + core cor, Zval =  3.0
     Generated using "atomic" code by A. Dal Corso v.6.3
     Shape of augmentation charge: PSQ
     Using radial grid of 1135 points,  4 beta functions with: 
                l(1) =   0
                l(2) =   0
                l(3) =   1
                l(4) =   1
     Q(r) pseudized with 0 coefficients 


     atomic species   valence    mass     pseudopotential
        Al             3.00    26.98200     Al( 1.00)

     No symmetry found



   Cartesian axes

     site n.     atom                  positions (alat units)
         1           Al  tau(   1) = (  -0.0001235   0.0000359   0.0002572  )
         2           Al  tau(   2) = (   0.5003009   0.4992819   0.0002658  )
         3           Al  tau(   3) = (   0.4996490   0.0001153   0.5011170  )
         4           Al  tau(   4) = (  -0.0000756   0.5008267   0.5006943  )

     number of k points=    32  Marzari-Vanderbilt smearing, width (Ry)=  0.0200
                       cart. coord. in units 2pi/alat
        k(    1) = (   0.1250000   0.1250000   0.1250000), wk =   0.0625000
        k(    2) = (   0.1250000   0.1250000   0.3750000), wk =   0.0625000
        k(    3) = (   0.1250000   0.3750000   0.3750000), wk =   0.0625000
        k(    4) = (   0.3750000   0.3750000   0.3750000), wk =   0.0625000
        k(    5) = (  -0.1250000  -0.1250000   0.1250000), wk =   0.0625000
        k(    6) = (  -0.1250000   0.1250000  -0.1250000), wk =   0.0625000
        k(    7) = (   0.1250000  -0.1250000  -0.1250000), wk =   0.0625000
        k(    8) = (  -0.1250000  -0.1250000   0.3750000), wk =   0.0625000
        k(    9) = (  -0.1250000   0.1250000  -0.3750000), wk =   0.0625000
        k(   10) = (   0.1250000  -0.1250000  -0.3750000), wk =   0.0625000
        k(   11) = (   0.3750000  -0.1250000   0.1250000), wk =   0.0625000
        k(   12) = (  -0.3750000  -0.1250000  -0.1250000), wk =   0.0625000
        k(   13) = (   0.3750000   0.1250000  -0.1250000), wk =   0.0625000
        k(   14) = (  -0.3750000   0.1250000   0.1250000), wk =   0.0625000
        k(   15) = (  -0.1250000   0.3750000   0.1250000), wk =   0.0625000
        k(   16) = (  -0.1250000  -0.3750000  -0.1250000), wk =   0.0625000
        k(   17) = (   0.1250000   0.3750000  -0.1250000), wk =   0.0625000
        k(   18) = (   0.1250000  -0.3750000   0.1250000), wk =   0.0625000
        k(   19) = (  -0.1250000  -0.3750000   0.3750000), wk =   0.0625000
        k(   20) = (  -0.1250000   0.3750000  -0.3750000), wk =   0.0625000
        k(   21) = (   0.1250000  -0.3750000  -0.3750000), wk =   0.0625000
        k(   22) = (   0.3750000   0.1250000  -0.3750000), wk =   0.0625000
        k(   23) = (  -0.3750000  -0.1250000  -0.3750000), wk =   0.0625000
        k(   24) = (   0.3750000  -0.1250000   0.3750000), wk =   0.0625000
        k(   25) = (  -0.3750000   0.1250000   0.3750000), wk =   0.0625000
        k(   26) = (   0.3750000  -0.3750000   0.1250000), wk =   0.0625000
        k(   27) = (  -0.3750000  -0.3750000  -0.1250000), wk =   0.0625000
        k(   28) = (   0.3750000   0.3750000  -0.1250000), wk =   0.0625000
        k(   29) = (  -0.3750000   0.3750000   0.1250000), wk =   0.0625000
        k(   30) = (  -0.3750000  -0.3750000   0.3750000), wk =   0.0625000
        k(   31) = (  -0.3750000   0.3750000  -0.3750000), wk =   0.0625000
        k(   32) = (   0.3750000  -0.3750000  -0.3750000), wk =   0.0625000

     Dense  grid:     4139 G-vectors     FFT dimensions: (  20,  20,  20)

     Estimated max dynamical RAM per process >       9.00 MB

     Initial potential from superposition of free atoms

     starting charge   11.99084, renormalised to   12.00000
     Starting wfcs are   16 randomized atomic wfcs
     Checking if some PAW data can be deallocated... 

     total cpu time spent up to now is        3.8 secs

     Self-consistent Calculation

     iteration #  1     ecut=    60.00 Ry     beta= 0.10
     Davidson diagonalization with overlap
     ethr =  1.00E-02,  avg # of iterations =  4.9

     total cpu time spent up to now is        6.2 secs

     total energy              =    -141.65203025 Ry
     Harris-Foulkes estimate   =    -141.80633893 Ry
     estimated scf accuracy    <       0.18118754 Ry

     iteration #  2     ecut=    60.00 Ry     beta= 0.10
     Davidson diagonalization with overlap
     ethr =  1.51E-03,  avg # of iterations =  1.0

     total cpu time spent up to now is        7.7 secs

     total energy              =    -141.16178448 Ry
     Harris-Foulkes estimate   =    -141.65472301 Ry
     estimated scf accuracy    <       0.15197972 Ry

     iteration #  3     ecut=    60.00 Ry     beta= 0.10
     Davidson diagonalization with overlap
     ethr =  1.27E-03,  avg # of iterations =  2.0

     total cpu time spent up to now is        8.3 secs

     total energy              =    -141.24191123 Ry
     Harris-Foulkes estimate   =    -141.25340243 Ry
     estimated scf accuracy    <       0.01540422 Ry

     iteration #  4     ecut=    60.00 Ry     beta= 0.10
     Davidson diagonalization with overlap
     ethr =  1.28E-04,  avg # of iterations =  1.0

     total cpu time spent up to now is        8.8 secs

     total energy              =    -141.24106014 Ry
     Harris-Foulkes estimate   =    -141.24236407 Ry
     estimated scf accuracy    <       0.01223912 Ry

     iteration #  5     ecut=    60.00 Ry     beta= 0.10
     Davidson diagonalization with overlap
     ethr =  1.02E-04,  avg # of iterations =  1.0

     total cpu time spent up to now is        9.3 secs

     total energy              =    -141.24289031 Ry
     Harris-Foulkes estimate   =    -141.24212370 Ry
     estimated scf accuracy    <       0.00073164 Ry

     iteration #  6     ecut=    60.00 Ry     beta= 0.10
     Davidson diagonalization with overlap
     ethr =  6.10E-06,  avg # of iterations =  2.8

     total cpu time spent up to now is        9.9 secs

     total energy              =    -141.24314477 Ry
     Harris-Foulkes estimate   =    -141.24313400 Ry
     estimated scf accuracy    <       0.00011869 Ry

     iteration #  7     ecut=    60.00 Ry     beta= 0.10
     Davidson diagonalization with overlap
     ethr =  9.89E-07,  avg # of iterations =  1.0

     total cpu time spent up to now is       10.4 secs

     total energy              =    -141.24229077 Ry
     Harris-Foulkes estimate   =    -141.24314642 Ry
     estimated scf accuracy    <       0.00010812 Ry

     iteration #  8     ecut=    60.00 Ry     beta= 0.10
     Davidson diagonalization with overlap
     ethr =  9.01E-07,  avg # of iterations =  2.3

     total cpu time spent up to now is       11.0 secs

     total energy              =    -141.24240186 Ry
     Harris-Foulkes estimate   =    -141.24236273 Ry
     estimated scf accuracy    <       0.00011896 Ry

     iteration #  9     ecut=    60.00 Ry     beta= 0.10
     Davidson diagonalization with overlap
     ethr =  9.01E-07,  avg # of iterations =  1.1

     total cpu time spent up to now is       11.5 secs

     total energy              =    -141.24232457 Ry
     Harris-Foulkes estimate   =    -141.24240591 Ry
     estimated scf accuracy    <       0.00001166 Ry

     iteration # 10     ecut=    60.00 Ry     beta= 0.10
     Davidson diagonalization with overlap
     ethr =  9.72E-08,  avg # of iterations =  2.6

     total cpu time spent up to now is       12.0 secs

     total energy              =    -141.24232841 Ry
     Harris-Foulkes estimate   =    -141.24233103 Ry
     estimated scf accuracy    <       0.00000678 Ry

     iteration # 11     ecut=    60.00 Ry     beta= 0.10
     Davidson diagonalization with overlap
     ethr =  5.65E-08,  avg # of iterations =  1.0

     total cpu time spent up to now is       12.5 secs

     total energy              =    -141.24232709 Ry
     Harris-Foulkes estimate   =    -141.24232857 Ry
     estimated scf accuracy    <       0.00000135 Ry

     iteration # 12     ecut=    60.00 Ry     beta= 0.10
     Davidson diagonalization with overlap
     ethr =  1.13E-08,  avg # of iterations =  2.0

     total cpu time spent up to now is       13.1 secs

     End of self-consistent calculation

          k = 0.1250 0.1250 0.1250 (   510 PWs)   bands (ev):

    30.9161  41.4381  41.4571  41.4759  52.4303  52.4505  52.4706  54.9338
    54.9437  54.9536

          k = 0.1250 0.1250 0.3750 (   512 PWs)   bands (ev):

    34.4088  39.0150  43.9436  43.9624  51.8134  51.8307  54.8797  54.8884
    55.6935  61.5181

          k = 0.1250 0.3750 0.3750 (   527 PWs)   bands (ev):

    37.4240  41.6587  41.6957  44.5508  50.4957  52.9081  52.9573  57.0480
    57.5698  60.7340

          k = 0.3750 0.3750 0.3750 (   519 PWs)   bands (ev):

    39.8894  43.9782  44.0162  44.0540  47.7768  47.8183  47.8598  51.6522
    66.9755  66.9774

          k =-0.1250-0.1250 0.1250 (   510 PWs)   bands (ev):

    30.9161  41.4420  41.4571  41.4719  52.4345  52.4504  52.4664  54.9359
    54.9437  54.9516

          k =-0.1250 0.1250-0.1250 (   510 PWs)   bands (ev):

    30.9161  41.4459  41.4571  41.4680  52.4386  52.4505  52.4622  54.9379
    54.9437  54.9495

          k = 0.1250-0.1250-0.1250 (   510 PWs)   bands (ev):

    30.9161  41.4438  41.4571  41.4701  52.4364  52.4505  52.4644  54.9368
    54.9437  54.9506

          k =-0.1250-0.1250 0.3750 (   512 PWs)   bands (ev):

    34.4088  39.0150  43.9435  43.9623  51.8134  51.8307  54.8798  54.8884
    55.6933  61.5184

          k =-0.1250 0.1250-0.3750 (   512 PWs)   bands (ev):

    34.4088  39.0150  43.9486  43.9573  51.8181  51.8260  54.8821  54.8861
    55.6934  61.5182

          k = 0.1250-0.1250-0.3750 (   512 PWs)   bands (ev):

    34.4088  39.0150  43.9487  43.9573  51.8180  51.8260  54.8821  54.8861
    55.6936  61.5178

          k = 0.3750-0.1250 0.1250 (   512 PWs)   bands (ev):

    34.4089  39.0149  43.9486  43.9574  51.8179  51.8259  54.8822  54.8863
    55.6935  61.5184

          k =-0.3750-0.1250-0.1250 (   512 PWs)   bands (ev):

    34.4089  39.0149  43.9450  43.9610  51.8148  51.8295  54.8800  54.8874
    55.6941  61.5183

          k = 0.3750 0.1250-0.1250 (   512 PWs)   bands (ev):

    34.4089  39.0149  43.9486  43.9574  51.8178  51.8259  54.8822  54.8863
    55.6936  61.5185

          k =-0.3750 0.1250 0.1250 (   512 PWs)   bands (ev):

    34.4089  39.0149  43.9449  43.9610  51.8148  51.8295  54.8801  54.8875
    55.6938  61.5184

          k =-0.1250 0.3750 0.1250 (   512 PWs)   bands (ev):

    34.4089  39.0148  43.9519  43.9543  51.8210  51.8232  54.8834  54.8845
    55.6935  61.5183

          k =-0.1250-0.3750-0.1250 (   512 PWs)   bands (ev):

    34.4089  39.0148  43.9485  43.9579  51.8176  51.8263  54.8819  54.8862
    55.6936  61.5184

          k = 0.1250 0.3750-0.1250 (   512 PWs)   bands (ev):

    34.4089  39.0148  43.9519  43.9544  51.8209  51.8231  54.8833  54.8845
    55.6938  61.5183

          k = 0.1250-0.3750 0.1250 (   512 PWs)   bands (ev):

    34.4089  39.0148  43.9484  43.9578  51.8177  51.8263  54.8819  54.8862
    55.6934  61.5184

          k =-0.1250-0.3750 0.3750 (   527 PWs)   bands (ev):

    37.4240  41.6671  41.6873  44.5507  50.4958  52.9192  52.9460  57.0473
    57.5707  60.7351

          k =-0.1250 0.3750-0.3750 (   527 PWs)   bands (ev):

    37.4240  41.6672  41.6873  44.5507  50.4958  52.9192  52.9460  57.0470
    57.5712  60.7355

          k = 0.1250-0.3750-0.3750 (   527 PWs)   bands (ev):

    37.4240  41.6587  41.6957  44.5508  50.4957  52.9081  52.9573  57.0476
    57.5701  60.7329

          k = 0.3750 0.1250-0.3750 (   527 PWs)   bands (ev):

    37.4240  41.6744  41.6799  44.5507  50.4956  52.9291  52.9365  57.0480
    57.5700  60.7386

          k =-0.3750-0.1250-0.3750 (   527 PWs)   bands (ev):

    37.4240  41.6663  41.6880  44.5506  50.4959  52.9184  52.9472  57.0482
    57.5696  60.7351

          k = 0.3750-0.1250 0.3750 (   527 PWs)   bands (ev):

    37.4240  41.6663  41.6881  44.5506  50.4957  52.9183  52.9471  57.0484
    57.5698  60.7350

          k =-0.3750 0.1250 0.3750 (   527 PWs)   bands (ev):

    37.4240  41.6744  41.6799  44.5507  50.4958  52.9291  52.9366  57.0477
    57.5700  60.7381

          k = 0.3750-0.3750 0.1250 (   527 PWs)   bands (ev):

    37.4240  41.6673  41.6871  44.5508  50.4955  52.9194  52.9459  57.0483
    57.5698  60.7399

          k =-0.3750-0.3750-0.1250 (   527 PWs)   bands (ev):

    37.4241  41.6555  41.6989  44.5506  50.4959  52.9038  52.9615  57.0462
    57.5718  60.7318

          k = 0.3750 0.3750-0.1250 (   527 PWs)   bands (ev):

    37.4241  41.6555  41.6989  44.5507  50.4957  52.9037  52.9615  57.0483
    57.5697  60.7337

          k =-0.3750 0.3750 0.1250 (   527 PWs)   bands (ev):

    37.4241  41.6673  41.6871  44.5507  50.4958  52.9195  52.9460  57.0436
    57.5743  60.7365

          k =-0.3750-0.3750 0.3750 (   519 PWs)   bands (ev):

    39.8894  43.9861  44.0162  44.0459  47.7855  47.8182  47.8511  51.6523
    66.9749  66.9774

          k =-0.3750 0.3750-0.3750 (   519 PWs)   bands (ev):

    39.8894  43.9939  44.0162  44.0382  47.7940  47.8183  47.8426  51.6524
    66.9746  66.9778

          k = 0.3750-0.3750-0.3750 (   519 PWs)   bands (ev):

    39.8894  43.9897  44.0161  44.0423  47.7896  47.8183  47.8472  51.6522
    66.9743  66.9777

     the Fermi energy is    52.6623 ev

!    total energy              =    -141.24232707 Ry
     Harris-Foulkes estimate   =    -141.24232735 Ry
     estimated scf accuracy    <       0.00000057 Ry

     total all-electron energy =     -1925.813449 Ry

     The total energy is the sum of the following terms:

     one-electron contribution =      58.67317377 Ry
     hartree contribution      =       0.21199480 Ry
     xc contribution           =     -17.28536181 Ry
     ewald contribution        =     -40.85514763 Ry
     one-center paw contrib.   =    -141.98636553 Ry
     smearing contrib. (-TS)   =      -0.00062068 Ry

     convergence has been achieved in  12 iterations

     Forces acting on atoms (cartesian axes, Ry/au):

     atom    1 type  1   force =     0.00201264   -0.00040924    0.01642885
     atom    2 type  1   force =    -0.00325896    0.00371108    0.01641144
     atom    3 type  1   force =    -0.00055457   -0.00067132   -0.01731752
     atom    4 type  1   force =     0.00180089   -0.00263053   -0.01552277

     Total force =     0.033461     Total SCF correction =     0.000016


     Computing stress (Cartesian axis) and pressure

          total   stress  (Ry/bohr**3)                   (kbar)     P=59669.89
   0.40563313   0.00000113   0.00000095      59670.68      0.17      0.14
   0.00000113   0.40562194  -0.00000115          0.17  59669.04     -0.17
   0.00000095  -0.00000115   0.40562814          0.14     -0.17  59669.95


     Writing output data file fe_scf_fcc_2.save/

     init_run     :      2.10s CPU      2.14s WALL (       1 calls)
     electrons    :      9.10s CPU      9.22s WALL (       1 calls)
     forces       :      0.05s CPU      0.06s WALL (       1 calls)
     stress       :      0.16s CPU      0.16s WALL (       1 calls)

     Called by init_run:
     wfcinit      :      0.52s CPU      0.53s WALL (       1 calls)
     potinit      :      0.78s CPU      0.81s WALL (       1 calls)
     hinit0       :      0.77s CPU      0.78s WALL (       1 calls)

     Called by electrons:
     c_bands      :      4.23s CPU      4.31s WALL (      12 calls)
     sum_band     :      0.68s CPU      0.70s WALL (      12 calls)
     v_of_rho     :      0.10s CPU      0.11s WALL (      13 calls)
     newd         :      0.11s CPU      0.11s WALL (      13 calls)
     PAW_pot      :      4.74s CPU      4.77s WALL (      13 calls)
     mix_rho      :      0.02s CPU      0.01s WALL (      12 calls)

     Called by c_bands:
     init_us_2    :      0.18s CPU      0.22s WALL (     864 calls)
     cegterg      :      3.92s CPU      4.00s WALL (     384 calls)

     Called by sum_band:
     sum_band:bec :      0.00s CPU      0.00s WALL (     384 calls)
     addusdens    :      0.06s CPU      0.06s WALL (      12 calls)

     Called by *egterg:
     h_psi        :      3.14s CPU      3.15s WALL (    1143 calls)
     s_psi        :      0.27s CPU      0.23s WALL (    1143 calls)
     g_psi        :      0.04s CPU      0.03s WALL (     727 calls)
     cdiaghg      :      0.30s CPU      0.35s WALL (    1111 calls)

     Called by h_psi:
     h_psi:pot    :      3.11s CPU      3.12s WALL (    1143 calls)
     h_psi:calbec :      0.28s CPU      0.25s WALL (    1143 calls)
     vloc_psi     :      2.60s CPU      2.62s WALL (    1143 calls)
     add_vuspsi   :      0.22s CPU      0.25s WALL (    1143 calls)

     General routines
     calbec       :      0.38s CPU      0.33s WALL (    1687 calls)
     fft          :      0.04s CPU      0.02s WALL (     169 calls)
     ffts         :      0.00s CPU      0.00s WALL (      12 calls)
     fftw         :      2.51s CPU      2.59s WALL (   23706 calls)

     Parallel routines

     PWSCF        :    12.90s CPU        13.30s WALL


   This run was terminated on:  18: 8:32  19Oct2019            

=------------------------------------------------------------------------------=
   JOB DONE.
=------------------------------------------------------------------------------=
