
     Program PWSCF v.6.3 starts on 22Oct2019 at 19: 4:23 

     This program is part of the open-source Quantum ESPRESSO suite
     for quantum simulation of materials; please cite
         "P. Giannozzi et al., J. Phys.:Condens. Matter 21 395502 (2009);
         "P. Giannozzi et al., J. Phys.:Condens. Matter 29 465901 (2017);
          URL http://www.quantum-espresso.org", 
     in publications or presentations arising from this work. More details at
     http://www.quantum-espresso.org/quote

     Parallel version (MPI & OpenMP), running on      20 processor cores
     Number of MPI processes:                20
     Threads/MPI process:                     1

     MPI processes distributed on     1 nodes
     R & G space division:  proc/nbgrp/npool/nimage =      20
     Reading input from /rds/homes/b/bxp912/jobs/20191022_test/wd/runpwscf/file_10092.in
Warning: card &IONS ignored
Warning: card ION_DYNAMICS = 'BFGS', ignored
Warning: card / ignored
Warning: card &CELL ignored
Warning: card CELL_DYNAMICS = 'BFGS', ignored
Warning: card CELL_FACTOR = 2.0, ignored
Warning: card PRESS = 0.0, ignored
Warning: card / ignored

     Current dimensions of program PWSCF are:
     Max number of different atomic species (ntypx) = 10
     Max number of k-points (npk) =  40000
     Max angular momentum in pseudopotentials (lmaxx) =  3
     Message from routine read_upf::
     Pseudo file /rds/homes/b/bxp912/pp/Al.pbe-nl-kjpaw_psl.1.0.0.UPF has been successfully fixed on the fly.
To avoid this message in the future you can permanently fix 
 your pseudo files following instructions given in: 
https://gitlab.com/QEF/q-e/blob/master/upftools/how_to_fix_upf.md
               file Al.pbe-nl-kjpaw_psl.1.0.0.UPF: wavefunction(s)  3S 3P renormalized

     Subspace diagonalization in iterative solution of the eigenvalue problem:
     a serial algorithm will be used

 
     Parallelization info
     --------------------
     sticks:   dense  smooth     PW     G-vecs:    dense   smooth      PW
     Min           8       8      4                   88       88      28
     Max           9       9      5                   93       93      31
     Sum         177     177     89                 1839     1839     587
 


     bravais-lattice index     =            0
     lattice parameter (alat)  =       4.0400  a.u.
     unit-cell volume          =      65.9393 (a.u.)^3
     number of atoms/cell      =            4
     number of atomic types    =            1
     number of electrons       =        12.00
     number of Kohn-Sham states=           10
     kinetic-energy cutoff     =      50.0000  Ry
     charge density cutoff     =     140.0000  Ry
     convergence threshold     =      1.0E-06
     mixing beta               =       0.1000
     number of iterations used =           10  TF        mixing
     Exchange-correlation      = SLA PW PBX PBC ( 1  4  3  4 0 0)

     celldm(1)=   4.040000  celldm(2)=   0.000000  celldm(3)=   0.000000
     celldm(4)=   0.000000  celldm(5)=   0.000000  celldm(6)=   0.000000

     crystal axes: (cart. coord. in units of alat)
               a(1) = (   1.000000   0.000000   0.000000 )  
               a(2) = (   0.000000   1.000000   0.000000 )  
               a(3) = (   0.000000   0.000000   1.000000 )  

     reciprocal axes: (cart. coord. in units 2 pi/alat)
               b(1) = (  1.000000  0.000000  0.000000 )  
               b(2) = (  0.000000  1.000000  0.000000 )  
               b(3) = (  0.000000  0.000000  1.000000 )  


     PseudoPot. # 1 for Al read from file:
     /rds/homes/b/bxp912/pp/Al.pbe-nl-kjpaw_psl.1.0.0.UPF
     MD5 check sum: 339dbea23cf3ab9a065ad45c0f9085d7
     Pseudo is Projector augmented-wave + core cor, Zval =  3.0
     Generated using "atomic" code by A. Dal Corso v.5.1
     Shape of augmentation charge: PSQ
     Using radial grid of 1135 points,  4 beta functions with: 
                l(1) =   0
                l(2) =   0
                l(3) =   1
                l(4) =   1
     Q(r) pseudized with 0 coefficients 


     atomic species   valence    mass     pseudopotential
        Al             3.00    26.98200     Al( 1.00)

     No symmetry found



   Cartesian axes

     site n.     atom                  positions (alat units)
         1           Al  tau(   1) = (  -0.0001235   0.0000359   0.0002572  )
         2           Al  tau(   2) = (   0.5003009   0.4992819   0.0002658  )
         3           Al  tau(   3) = (   0.4996490   0.0001153   0.5011170  )
         4           Al  tau(   4) = (  -0.0000756   0.5008267   0.5006943  )

     number of k points=    32  Marzari-Vanderbilt smearing, width (Ry)=  0.0200
                       cart. coord. in units 2pi/alat
        k(    1) = (   0.1250000   0.1250000   0.1250000), wk =   0.0625000
        k(    2) = (   0.1250000   0.1250000   0.3750000), wk =   0.0625000
        k(    3) = (   0.1250000   0.3750000   0.3750000), wk =   0.0625000
        k(    4) = (   0.3750000   0.3750000   0.3750000), wk =   0.0625000
        k(    5) = (  -0.1250000  -0.1250000   0.1250000), wk =   0.0625000
        k(    6) = (  -0.1250000   0.1250000  -0.1250000), wk =   0.0625000
        k(    7) = (   0.1250000  -0.1250000  -0.1250000), wk =   0.0625000
        k(    8) = (  -0.1250000  -0.1250000   0.3750000), wk =   0.0625000
        k(    9) = (  -0.1250000   0.1250000  -0.3750000), wk =   0.0625000
        k(   10) = (   0.1250000  -0.1250000  -0.3750000), wk =   0.0625000
        k(   11) = (   0.3750000  -0.1250000   0.1250000), wk =   0.0625000
        k(   12) = (  -0.3750000  -0.1250000  -0.1250000), wk =   0.0625000
        k(   13) = (   0.3750000   0.1250000  -0.1250000), wk =   0.0625000
        k(   14) = (  -0.3750000   0.1250000   0.1250000), wk =   0.0625000
        k(   15) = (  -0.1250000   0.3750000   0.1250000), wk =   0.0625000
        k(   16) = (  -0.1250000  -0.3750000  -0.1250000), wk =   0.0625000
        k(   17) = (   0.1250000   0.3750000  -0.1250000), wk =   0.0625000
        k(   18) = (   0.1250000  -0.3750000   0.1250000), wk =   0.0625000
        k(   19) = (  -0.1250000  -0.3750000   0.3750000), wk =   0.0625000
        k(   20) = (  -0.1250000   0.3750000  -0.3750000), wk =   0.0625000
        k(   21) = (   0.1250000  -0.3750000  -0.3750000), wk =   0.0625000
        k(   22) = (   0.3750000   0.1250000  -0.3750000), wk =   0.0625000
        k(   23) = (  -0.3750000  -0.1250000  -0.3750000), wk =   0.0625000
        k(   24) = (   0.3750000  -0.1250000   0.3750000), wk =   0.0625000
        k(   25) = (  -0.3750000   0.1250000   0.3750000), wk =   0.0625000
        k(   26) = (   0.3750000  -0.3750000   0.1250000), wk =   0.0625000
        k(   27) = (  -0.3750000  -0.3750000  -0.1250000), wk =   0.0625000
        k(   28) = (   0.3750000   0.3750000  -0.1250000), wk =   0.0625000
        k(   29) = (  -0.3750000   0.3750000   0.1250000), wk =   0.0625000
        k(   30) = (  -0.3750000  -0.3750000   0.3750000), wk =   0.0625000
        k(   31) = (  -0.3750000   0.3750000  -0.3750000), wk =   0.0625000
        k(   32) = (   0.3750000  -0.3750000  -0.3750000), wk =   0.0625000

     Dense  grid:     1839 G-vectors     FFT dimensions: (  15,  15,  15)

     Estimated max dynamical RAM per process >       0.45 MB

     Estimated total dynamical RAM >       9.05 MB

     Initial potential from superposition of free atoms

     starting charge   11.99084, renormalised to   12.00000
     Starting wfcs are   16 randomized atomic wfcs
     Checking if some PAW data can be deallocated... 

     total cpu time spent up to now is        0.7 secs

     Self-consistent Calculation

     iteration #  1     ecut=    50.00 Ry     beta= 0.10
     Davidson diagonalization with overlap
     ethr =  1.00E-02,  avg # of iterations =  4.9

     total cpu time spent up to now is        0.9 secs

     total energy              =    -141.65161345 Ry
     Harris-Foulkes estimate   =    -141.80582153 Ry
     estimated scf accuracy    <       0.18084923 Ry

     iteration #  2     ecut=    50.00 Ry     beta= 0.10
     Davidson diagonalization with overlap
     ethr =  1.51E-03,  avg # of iterations =  1.0

     total cpu time spent up to now is        1.0 secs

     total energy              =    -141.16271321 Ry
     Harris-Foulkes estimate   =    -141.65426206 Ry
     estimated scf accuracy    <       0.15225286 Ry

     iteration #  3     ecut=    50.00 Ry     beta= 0.10
     Davidson diagonalization with overlap
     ethr =  1.27E-03,  avg # of iterations =  2.0

     total cpu time spent up to now is        1.1 secs

     total energy              =    -141.24523638 Ry
     Harris-Foulkes estimate   =    -141.25992475 Ry
     estimated scf accuracy    <       0.01629041 Ry

     iteration #  4     ecut=    50.00 Ry     beta= 0.10
     Davidson diagonalization with overlap
     ethr =  1.36E-04,  avg # of iterations =  1.0

     total cpu time spent up to now is        1.2 secs

     total energy              =    -141.24049424 Ry
     Harris-Foulkes estimate   =    -141.24569669 Ry
     estimated scf accuracy    <       0.01286391 Ry

     iteration #  5     ecut=    50.00 Ry     beta= 0.10
     Davidson diagonalization with overlap
     ethr =  1.07E-04,  avg # of iterations =  1.0

     total cpu time spent up to now is        1.3 secs

     total energy              =    -141.24277433 Ry
     Harris-Foulkes estimate   =    -141.24162613 Ry
     estimated scf accuracy    <       0.00075968 Ry

     iteration #  6     ecut=    50.00 Ry     beta= 0.10
     Davidson diagonalization with overlap
     ethr =  6.33E-06,  avg # of iterations =  2.8

     total cpu time spent up to now is        1.4 secs

     total energy              =    -141.24293001 Ry
     Harris-Foulkes estimate   =    -141.24305993 Ry
     estimated scf accuracy    <       0.00007532 Ry

     iteration #  7     ecut=    50.00 Ry     beta= 0.10
     Davidson diagonalization with overlap
     ethr =  6.28E-07,  avg # of iterations =  1.4

     total cpu time spent up to now is        1.5 secs

     total energy              =    -141.24187596 Ry
     Harris-Foulkes estimate   =    -141.24293144 Ry
     estimated scf accuracy    <       0.00006422 Ry

     iteration #  8     ecut=    50.00 Ry     beta= 0.10
     Davidson diagonalization with overlap
     ethr =  5.35E-07,  avg # of iterations =  2.9

     total cpu time spent up to now is        1.6 secs

     total energy              =    -141.24194616 Ry
     Harris-Foulkes estimate   =    -141.24194295 Ry
     estimated scf accuracy    <       0.00000630 Ry

     iteration #  9     ecut=    50.00 Ry     beta= 0.10
     Davidson diagonalization with overlap
     ethr =  5.25E-08,  avg # of iterations =  1.0

     total cpu time spent up to now is        1.7 secs

     total energy              =    -141.24186443 Ry
     Harris-Foulkes estimate   =    -141.24194639 Ry
     estimated scf accuracy    <       0.00001140 Ry

     iteration # 10     ecut=    50.00 Ry     beta= 0.10
     Davidson diagonalization with overlap
     ethr =  5.25E-08,  avg # of iterations =  3.0

     total cpu time spent up to now is        1.8 secs

     total energy              =    -141.24187392 Ry
     Harris-Foulkes estimate   =    -141.24187411 Ry
     estimated scf accuracy    <       0.00000303 Ry

     iteration # 11     ecut=    50.00 Ry     beta= 0.10
     Davidson diagonalization with overlap
     ethr =  2.52E-08,  avg # of iterations =  1.0

     total cpu time spent up to now is        1.9 secs

     total energy              =    -141.24187398 Ry
     Harris-Foulkes estimate   =    -141.24187393 Ry
     estimated scf accuracy    <       0.00000278 Ry

     iteration # 12     ecut=    50.00 Ry     beta= 0.10
     Davidson diagonalization with overlap
     ethr =  2.31E-08,  avg # of iterations =  1.0

     total cpu time spent up to now is        2.0 secs

     End of self-consistent calculation

          k = 0.1250 0.1250 0.1250 (   401 PWs)   bands (ev):

    30.9184  41.4408  41.4588  41.4786  52.4319  52.4522  52.4723  54.9353
    54.9452  54.9553

          k = 0.1250 0.1250 0.3750 (   392 PWs)   bands (ev):

    34.4110  39.0171  43.9459  43.9647  51.8150  51.8323  54.8812  54.8899
    55.6952  61.5198

          k = 0.1250 0.3750 0.3750 (   389 PWs)   bands (ev):

    37.4261  41.6608  41.6977  44.5529  50.4974  52.9100  52.9592  57.0499
    57.5716  60.7373

          k = 0.3750 0.3750 0.3750 (   389 PWs)   bands (ev):

    39.8915  43.9804  44.0179  44.0561  47.7786  47.8201  47.8616  51.6540
    66.9768  66.9804

          k =-0.1250-0.1250 0.1250 (   401 PWs)   bands (ev):

    30.9184  41.4446  41.4590  41.4745  52.4362  52.4521  52.4681  54.9374
    54.9452  54.9531

          k =-0.1250 0.1250-0.1250 (   401 PWs)   bands (ev):

    30.9184  41.4481  41.4598  41.4703  52.4403  52.4521  52.4639  54.9395
    54.9452  54.9511

          k = 0.1250-0.1250-0.1250 (   401 PWs)   bands (ev):

    30.9184  41.4463  41.4593  41.4726  52.4381  52.4522  52.4661  54.9383
    54.9452  54.9522

          k =-0.1250-0.1250 0.3750 (   392 PWs)   bands (ev):

    34.4110  39.0172  43.9459  43.9647  51.8151  51.8323  54.8812  54.8899
    55.6950  61.5200

          k =-0.1250 0.1250-0.3750 (   392 PWs)   bands (ev):

    34.4110  39.0172  43.9510  43.9596  51.8197  51.8276  54.8836  54.8876
    55.6951  61.5198

          k = 0.1250-0.1250-0.3750 (   392 PWs)   bands (ev):

    34.4110  39.0171  43.9510  43.9597  51.8197  51.8276  54.8835  54.8875
    55.6953  61.5195

          k = 0.3750-0.1250 0.1250 (   392 PWs)   bands (ev):

    34.4110  39.0171  43.9510  43.9597  51.8195  51.8275  54.8837  54.8877
    55.6952  61.5201

          k =-0.3750-0.1250-0.1250 (   392 PWs)   bands (ev):

    34.4110  39.0170  43.9473  43.9634  51.8164  51.8311  54.8815  54.8889
    55.6958  61.5200

          k = 0.3750 0.1250-0.1250 (   392 PWs)   bands (ev):

    34.4110  39.0170  43.9510  43.9597  51.8195  51.8275  54.8837  54.8877
    55.6953  61.5198

          k =-0.3750 0.1250 0.1250 (   392 PWs)   bands (ev):

    34.4110  39.0171  43.9473  43.9633  51.8165  51.8312  54.8816  54.8890
    55.6955  61.5201

          k =-0.1250 0.3750 0.1250 (   392 PWs)   bands (ev):

    34.4110  39.0170  43.9543  43.9567  51.8226  51.8248  54.8849  54.8860
    55.6952  61.5200

          k =-0.1250-0.3750-0.1250 (   392 PWs)   bands (ev):

    34.4110  39.0170  43.9508  43.9602  51.8193  51.8279  54.8834  54.8877
    55.6953  61.5200

          k = 0.1250 0.3750-0.1250 (   392 PWs)   bands (ev):

    34.4110  39.0170  43.9543  43.9567  51.8226  51.8248  54.8847  54.8859
    55.6955  61.5198

          k = 0.1250-0.3750 0.1250 (   392 PWs)   bands (ev):

    34.4110  39.0170  43.9508  43.9602  51.8193  51.8280  54.8833  54.8877
    55.6951  61.5199

          k =-0.1250-0.3750 0.3750 (   389 PWs)   bands (ev):

    37.4260  41.6692  41.6894  44.5527  50.4975  52.9211  52.9479  57.0492
    57.5725  60.7387

          k =-0.1250 0.3750-0.3750 (   389 PWs)   bands (ev):

    37.4260  41.6693  41.6894  44.5528  50.4975  52.9210  52.9479  57.0488
    57.5730  60.7391

          k = 0.1250-0.3750-0.3750 (   389 PWs)   bands (ev):

    37.4261  41.6608  41.6977  44.5529  50.4974  52.9100  52.9592  57.0495
    57.5718  60.7367

          k = 0.3750 0.1250-0.3750 (   389 PWs)   bands (ev):

    37.4261  41.6764  41.6820  44.5528  50.4973  52.9309  52.9383  57.0499
    57.5718  60.7403

          k =-0.3750-0.1250-0.3750 (   389 PWs)   bands (ev):

    37.4261  41.6684  41.6901  44.5527  50.4976  52.9202  52.9491  57.0501
    57.5714  60.7376

          k = 0.3750-0.1250 0.3750 (   389 PWs)   bands (ev):

    37.4260  41.6685  41.6901  44.5527  50.4974  52.9201  52.9490  57.0502
    57.5715  60.7405

          k =-0.3750 0.1250 0.3750 (   389 PWs)   bands (ev):

    37.4260  41.6764  41.6820  44.5528  50.4975  52.9310  52.9384  57.0495
    57.5718  60.7403

          k = 0.3750-0.3750 0.1250 (   389 PWs)   bands (ev):

    37.4261  41.6693  41.6892  44.5528  50.4972  52.9213  52.9477  57.0501
    57.5716  60.7387

          k =-0.3750-0.3750-0.1250 (   389 PWs)   bands (ev):

    37.4261  41.6576  41.7010  44.5527  50.4976  52.9056  52.9634  57.0481
    57.5735  60.7337

          k = 0.3750 0.3750-0.1250 (   389 PWs)   bands (ev):

    37.4261  41.6576  41.7010  44.5527  50.4974  52.9056  52.9633  57.0502
    57.5715  60.7344

          k =-0.3750 0.3750 0.1250 (   389 PWs)   bands (ev):

    37.4261  41.6693  41.6892  44.5528  50.4975  52.9214  52.9478  57.0455
    57.5761  60.7389

          k =-0.3750-0.3750 0.3750 (   389 PWs)   bands (ev):

    39.8915  43.9882  44.0181  44.0480  47.7873  47.8200  47.8529  51.6541
    66.9773  66.9800

          k =-0.3750 0.3750-0.3750 (   389 PWs)   bands (ev):

    39.8914  43.9959  44.0183  44.0401  47.7958  47.8201  47.8444  51.6541
    66.9778  66.9792

          k = 0.3750-0.3750-0.3750 (   389 PWs)   bands (ev):

    39.8915  43.9918  44.0180  44.0444  47.7914  47.8201  47.8490  51.6540
    66.9768  66.9796

     the Fermi energy is    52.6640 ev

!    total energy              =    -141.24187286 Ry
     Harris-Foulkes estimate   =    -141.24187401 Ry
     estimated scf accuracy    <       0.00000089 Ry

     total all-electron energy =     -1925.813001 Ry

     The total energy is the sum of the following terms:

     one-electron contribution =      58.67399424 Ry
     hartree contribution      =       0.21201604 Ry
     xc contribution           =     -17.28570957 Ry
     ewald contribution        =     -40.85514766 Ry
     one-center paw contrib.   =    -141.98640791 Ry
     smearing contrib. (-TS)   =      -0.00061801 Ry

     convergence has been achieved in  12 iterations

     Forces acting on atoms (cartesian axes, Ry/au):

     atom    1 type  1   force =     0.00200494   -0.00037709    0.01643843
     atom    2 type  1   force =    -0.00322765    0.00370884    0.01640896
     atom    3 type  1   force =    -0.00056903   -0.00071333   -0.01728427
     atom    4 type  1   force =     0.00179174   -0.00261842   -0.01556312

     Total force =     0.033461     Total SCF correction =     0.000007


     Computing stress (Cartesian axis) and pressure

          total   stress  (Ry/bohr**3)                   (kbar)     P=59675.84
   0.40567349   0.00000117   0.00000086      59676.62      0.17      0.13
   0.00000117   0.40566235  -0.00000110          0.17  59674.98     -0.16
   0.00000086  -0.00000110   0.40566866          0.13     -0.16  59675.91


     Writing output data file fe_scf_fcc_2.save/
 
     init_run     :      0.09s CPU      0.14s WALL (       1 calls)
     electrons    :      1.17s CPU      1.32s WALL (       1 calls)
     forces       :      0.01s CPU      0.01s WALL (       1 calls)
     stress       :      0.01s CPU      0.01s WALL (       1 calls)

     Called by init_run:
     wfcinit      :      0.04s CPU      0.05s WALL (       1 calls)
     potinit      :      0.03s CPU      0.03s WALL (       1 calls)
     hinit0       :      0.02s CPU      0.05s WALL (       1 calls)

     Called by electrons:
     c_bands      :      0.87s CPU      0.99s WALL (      12 calls)
     sum_band     :      0.14s CPU      0.15s WALL (      12 calls)
     v_of_rho     :      0.01s CPU      0.01s WALL (      13 calls)
     newd         :      0.00s CPU      0.00s WALL (      13 calls)
     PAW_pot      :      0.15s CPU      0.17s WALL (      13 calls)
     mix_rho      :      0.00s CPU      0.00s WALL (      12 calls)

     Called by c_bands:
     init_us_2    :      0.01s CPU      0.01s WALL (     864 calls)
     cegterg      :      0.85s CPU      0.96s WALL (     384 calls)

     Called by sum_band:
     sum_band:bec :      0.00s CPU      0.00s WALL (     384 calls)
     addusdens    :      0.00s CPU      0.00s WALL (      12 calls)

     Called by *egterg:
     h_psi        :      0.59s CPU      0.67s WALL (    1150 calls)
     s_psi        :      0.01s CPU      0.01s WALL (    1150 calls)
     g_psi        :      0.00s CPU      0.00s WALL (     734 calls)
     cdiaghg      :      0.18s CPU      0.20s WALL (    1118 calls)

     Called by h_psi:
     h_psi:pot    :      0.59s CPU      0.67s WALL (    1150 calls)
     h_psi:calbec :      0.06s CPU      0.07s WALL (    1150 calls)
     vloc_psi     :      0.52s CPU      0.59s WALL (    1150 calls)
     add_vuspsi   :      0.01s CPU      0.01s WALL (    1150 calls)

     General routines
     calbec       :      0.08s CPU      0.09s WALL (    1694 calls)
     fft          :      0.03s CPU      0.06s WALL (     169 calls)
     ffts         :      0.00s CPU      0.00s WALL (      12 calls)
     fftw         :      0.59s CPU      0.66s WALL (   23916 calls)
 
     Parallel routines
     fft_scatt_xy :      0.04s CPU      0.04s WALL (   24097 calls)
     fft_scatt_yz :      0.47s CPU      0.54s WALL (   24097 calls)
 
     PWSCF        :     1.82s CPU         2.34s WALL

 
   This run was terminated on:  19: 4:25  22Oct2019            

=------------------------------------------------------------------------------=
   JOB DONE.
=------------------------------------------------------------------------------=
