
     Program PWSCF v.6.3 starts on 19Oct2019 at 23:18:24 

     This program is part of the open-source Quantum ESPRESSO suite
     for quantum simulation of materials; please cite
         "P. Giannozzi et al., J. Phys.:Condens. Matter 21 395502 (2009);
         "P. Giannozzi et al., J. Phys.:Condens. Matter 29 465901 (2017);
          URL http://www.quantum-espresso.org", 
     in publications or presentations arising from this work. More details at
     http://www.quantum-espresso.org/quote

     Parallel version (MPI), running on     1 processors

     MPI processes distributed on     1 nodes
     Reading input from /cloud/Code/python/py_pwscf_converge/src/example/wd/runpwscf/file_10011.in
Warning: card &IONS ignored
Warning: card ION_DYNAMICS = 'BFGS', ignored
Warning: card / ignored
Warning: card &CELL ignored
Warning: card CELL_DYNAMICS = 'BFGS', ignored
Warning: card CELL_FACTOR = 2.0, ignored
Warning: card PRESS = 0.0, ignored
Warning: card / ignored

     Current dimensions of program PWSCF are:
     Max number of different atomic species (ntypx) = 10
     Max number of k-points (npk) =  40000
     Max angular momentum in pseudopotentials (lmaxx) =  3
               file Al.pbe-nl-kjpaw_psl.1.0.0.UPF: wavefunction(s)  3S 3P renormalized

     Subspace diagonalization in iterative solution of the eigenvalue problem:
     a serial algorithm will be used


     G-vector sticks info
     --------------------
     sticks:   dense  smooth     PW     G-vecs:    dense   smooth      PW
     Sum         177     177     69                 1839     1839     485



     bravais-lattice index     =            0
     lattice parameter (alat)  =       4.0400  a.u.
     unit-cell volume          =      65.9393 (a.u.)^3
     number of atoms/cell      =            4
     number of atomic types    =            1
     number of electrons       =        12.00
     number of Kohn-Sham states=           10
     kinetic-energy cutoff     =      45.0000  Ry
     charge density cutoff     =     140.0000  Ry
     convergence threshold     =      1.0E-06
     mixing beta               =       0.1000
     number of iterations used =           10  TF        mixing
     Exchange-correlation      = SLA PW PBX PBC ( 1  4  3  4 0 0)

     celldm(1)=   4.040000  celldm(2)=   0.000000  celldm(3)=   0.000000
     celldm(4)=   0.000000  celldm(5)=   0.000000  celldm(6)=   0.000000

     crystal axes: (cart. coord. in units of alat)
               a(1) = (   1.000000   0.000000   0.000000 )  
               a(2) = (   0.000000   1.000000   0.000000 )  
               a(3) = (   0.000000   0.000000   1.000000 )  

     reciprocal axes: (cart. coord. in units 2 pi/alat)
               b(1) = (  1.000000  0.000000  0.000000 )  
               b(2) = (  0.000000  1.000000  0.000000 )  
               b(3) = (  0.000000  0.000000  1.000000 )  


     PseudoPot. # 1 for Al read from file:
     /opt/pp/Al.pbe-nl-kjpaw_psl.1.0.0.UPF
     MD5 check sum: 1b67f78b73fe58c7924490f171ce8a1e
     Pseudo is Projector augmented-wave + core cor, Zval =  3.0
     Generated using "atomic" code by A. Dal Corso v.6.3
     Shape of augmentation charge: PSQ
     Using radial grid of 1135 points,  4 beta functions with: 
                l(1) =   0
                l(2) =   0
                l(3) =   1
                l(4) =   1
     Q(r) pseudized with 0 coefficients 


     atomic species   valence    mass     pseudopotential
        Al             3.00    26.98200     Al( 1.00)

     No symmetry found



   Cartesian axes

     site n.     atom                  positions (alat units)
         1           Al  tau(   1) = (  -0.0001235   0.0000359   0.0002572  )
         2           Al  tau(   2) = (   0.5003009   0.4992819   0.0002658  )
         3           Al  tau(   3) = (   0.4996490   0.0001153   0.5011170  )
         4           Al  tau(   4) = (  -0.0000756   0.5008267   0.5006943  )

     number of k points=    32  Marzari-Vanderbilt smearing, width (Ry)=  0.0200
                       cart. coord. in units 2pi/alat
        k(    1) = (   0.1250000   0.1250000   0.1250000), wk =   0.0625000
        k(    2) = (   0.1250000   0.1250000   0.3750000), wk =   0.0625000
        k(    3) = (   0.1250000   0.3750000   0.3750000), wk =   0.0625000
        k(    4) = (   0.3750000   0.3750000   0.3750000), wk =   0.0625000
        k(    5) = (  -0.1250000  -0.1250000   0.1250000), wk =   0.0625000
        k(    6) = (  -0.1250000   0.1250000  -0.1250000), wk =   0.0625000
        k(    7) = (   0.1250000  -0.1250000  -0.1250000), wk =   0.0625000
        k(    8) = (  -0.1250000  -0.1250000   0.3750000), wk =   0.0625000
        k(    9) = (  -0.1250000   0.1250000  -0.3750000), wk =   0.0625000
        k(   10) = (   0.1250000  -0.1250000  -0.3750000), wk =   0.0625000
        k(   11) = (   0.3750000  -0.1250000   0.1250000), wk =   0.0625000
        k(   12) = (  -0.3750000  -0.1250000  -0.1250000), wk =   0.0625000
        k(   13) = (   0.3750000   0.1250000  -0.1250000), wk =   0.0625000
        k(   14) = (  -0.3750000   0.1250000   0.1250000), wk =   0.0625000
        k(   15) = (  -0.1250000   0.3750000   0.1250000), wk =   0.0625000
        k(   16) = (  -0.1250000  -0.3750000  -0.1250000), wk =   0.0625000
        k(   17) = (   0.1250000   0.3750000  -0.1250000), wk =   0.0625000
        k(   18) = (   0.1250000  -0.3750000   0.1250000), wk =   0.0625000
        k(   19) = (  -0.1250000  -0.3750000   0.3750000), wk =   0.0625000
        k(   20) = (  -0.1250000   0.3750000  -0.3750000), wk =   0.0625000
        k(   21) = (   0.1250000  -0.3750000  -0.3750000), wk =   0.0625000
        k(   22) = (   0.3750000   0.1250000  -0.3750000), wk =   0.0625000
        k(   23) = (  -0.3750000  -0.1250000  -0.3750000), wk =   0.0625000
        k(   24) = (   0.3750000  -0.1250000   0.3750000), wk =   0.0625000
        k(   25) = (  -0.3750000   0.1250000   0.3750000), wk =   0.0625000
        k(   26) = (   0.3750000  -0.3750000   0.1250000), wk =   0.0625000
        k(   27) = (  -0.3750000  -0.3750000  -0.1250000), wk =   0.0625000
        k(   28) = (   0.3750000   0.3750000  -0.1250000), wk =   0.0625000
        k(   29) = (  -0.3750000   0.3750000   0.1250000), wk =   0.0625000
        k(   30) = (  -0.3750000  -0.3750000   0.3750000), wk =   0.0625000
        k(   31) = (  -0.3750000   0.3750000  -0.3750000), wk =   0.0625000
        k(   32) = (   0.3750000  -0.3750000  -0.3750000), wk =   0.0625000

     Dense  grid:     1839 G-vectors     FFT dimensions: (  15,  15,  15)

     Estimated max dynamical RAM per process >       4.64 MB

     Initial potential from superposition of free atoms

     starting charge   11.99084, renormalised to   12.00000
     Starting wfcs are   16 randomized atomic wfcs
     Checking if some PAW data can be deallocated... 

     total cpu time spent up to now is        0.9 secs

     Self-consistent Calculation

     iteration #  1     ecut=    45.00 Ry     beta= 0.10
     Davidson diagonalization with overlap
     ethr =  1.00E-02,  avg # of iterations =  4.9

     total cpu time spent up to now is        1.4 secs

     total energy              =    -141.65038018 Ry
     Harris-Foulkes estimate   =    -141.80481754 Ry
     estimated scf accuracy    <       0.18115787 Ry

     iteration #  2     ecut=    45.00 Ry     beta= 0.10
     Davidson diagonalization with overlap
     ethr =  1.51E-03,  avg # of iterations =  1.0

     total cpu time spent up to now is        1.8 secs

     total energy              =    -141.16042828 Ry
     Harris-Foulkes estimate   =    -141.65393248 Ry
     estimated scf accuracy    <       0.15189586 Ry

     iteration #  3     ecut=    45.00 Ry     beta= 0.10
     Davidson diagonalization with overlap
     ethr =  1.27E-03,  avg # of iterations =  2.0

     total cpu time spent up to now is        2.2 secs

     total energy              =    -141.23769386 Ry
     Harris-Foulkes estimate   =    -141.24760264 Ry
     estimated scf accuracy    <       0.01480744 Ry

     iteration #  4     ecut=    45.00 Ry     beta= 0.10
     Davidson diagonalization with overlap
     ethr =  1.23E-04,  avg # of iterations =  1.0

     total cpu time spent up to now is        2.5 secs

     total energy              =    -141.24051554 Ry
     Harris-Foulkes estimate   =    -141.23822237 Ry
     estimated scf accuracy    <       0.01148383 Ry

     iteration #  5     ecut=    45.00 Ry     beta= 0.10
     Davidson diagonalization with overlap
     ethr =  9.57E-05,  avg # of iterations =  1.6

     total cpu time spent up to now is        2.9 secs

     total energy              =    -141.24240806 Ry
     Harris-Foulkes estimate   =    -141.24166601 Ry
     estimated scf accuracy    <       0.00053914 Ry

     iteration #  6     ecut=    45.00 Ry     beta= 0.10
     Davidson diagonalization with overlap
     ethr =  4.49E-06,  avg # of iterations =  2.6

     total cpu time spent up to now is        3.2 secs

     total energy              =    -141.24259878 Ry
     Harris-Foulkes estimate   =    -141.24258187 Ry
     estimated scf accuracy    <       0.00011700 Ry

     iteration #  7     ecut=    45.00 Ry     beta= 0.10
     Davidson diagonalization with overlap
     ethr =  9.75E-07,  avg # of iterations =  1.0

     total cpu time spent up to now is        3.6 secs

     total energy              =    -141.24185503 Ry
     Harris-Foulkes estimate   =    -141.24260083 Ry
     estimated scf accuracy    <       0.00010480 Ry

     iteration #  8     ecut=    45.00 Ry     beta= 0.10
     Davidson diagonalization with overlap
     ethr =  8.73E-07,  avg # of iterations =  2.0

     total cpu time spent up to now is        4.0 secs

     total energy              =    -141.24189491 Ry
     Harris-Foulkes estimate   =    -141.24189952 Ry
     estimated scf accuracy    <       0.00001206 Ry

     iteration #  9     ecut=    45.00 Ry     beta= 0.10
     Davidson diagonalization with overlap
     ethr =  1.01E-07,  avg # of iterations =  1.0

     total cpu time spent up to now is        4.3 secs

     total energy              =    -141.24179827 Ry
     Harris-Foulkes estimate   =    -141.24189529 Ry
     estimated scf accuracy    <       0.00000554 Ry

     iteration # 10     ecut=    45.00 Ry     beta= 0.10
     Davidson diagonalization with overlap
     ethr =  4.62E-08,  avg # of iterations =  3.0

     total cpu time spent up to now is        4.7 secs

     total energy              =    -141.24180721 Ry
     Harris-Foulkes estimate   =    -141.24180720 Ry
     estimated scf accuracy    <       0.00000144 Ry

     iteration # 11     ecut=    45.00 Ry     beta= 0.10
     Davidson diagonalization with overlap
     ethr =  1.20E-08,  avg # of iterations =  1.0

     total cpu time spent up to now is        5.1 secs

     total energy              =    -141.24180743 Ry
     Harris-Foulkes estimate   =    -141.24180721 Ry
     estimated scf accuracy    <       0.00000134 Ry

     iteration # 12     ecut=    45.00 Ry     beta= 0.10
     Davidson diagonalization with overlap
     ethr =  1.11E-08,  avg # of iterations =  1.0

     total cpu time spent up to now is        5.4 secs

     End of self-consistent calculation

          k = 0.1250 0.1250 0.1250 (   338 PWs)   bands (ev):

    30.9134  41.4386  41.4566  41.4765  52.4314  52.4517  52.4718  54.9313
    54.9412  54.9513

          k = 0.1250 0.1250 0.3750 (   338 PWs)   bands (ev):

    34.4061  39.0130  43.9431  43.9620  51.8127  51.8300  54.8786  54.8872
    55.6947  61.5186

          k = 0.1250 0.3750 0.3750 (   340 PWs)   bands (ev):

    37.4214  41.6566  41.6935  44.5490  50.4953  52.9080  52.9573  57.0486
    57.5700  60.7338

          k = 0.3750 0.3750 0.3750 (   326 PWs)   bands (ev):

    39.8874  43.9764  44.0139  44.0521  47.7759  47.8174  47.8590  51.6520
    66.9746  66.9802

          k =-0.1250-0.1250 0.1250 (   338 PWs)   bands (ev):

    30.9134  41.4424  41.4569  41.4724  52.4356  52.4516  52.4676  54.9334
    54.9413  54.9492

          k =-0.1250 0.1250-0.1250 (   338 PWs)   bands (ev):

    30.9134  41.4460  41.4576  41.4681  52.4397  52.4516  52.4634  54.9355
    54.9413  54.9471

          k = 0.1250-0.1250-0.1250 (   338 PWs)   bands (ev):

    30.9134  41.4441  41.4571  41.4704  52.4376  52.4517  52.4656  54.9344
    54.9413  54.9482

          k =-0.1250-0.1250 0.3750 (   338 PWs)   bands (ev):

    34.4061  39.0130  43.9431  43.9620  51.8127  51.8300  54.8786  54.8873
    55.6944  61.5186

          k =-0.1250 0.1250-0.3750 (   338 PWs)   bands (ev):

    34.4061  39.0130  43.9482  43.9569  51.8174  51.8253  54.8809  54.8849
    55.6945  61.5185

          k = 0.1250-0.1250-0.3750 (   338 PWs)   bands (ev):

    34.4061  39.0130  43.9483  43.9569  51.8173  51.8253  54.8809  54.8849
    55.6947  61.5180

          k = 0.3750-0.1250 0.1250 (   338 PWs)   bands (ev):

    34.4061  39.0129  43.9482  43.9570  51.8171  51.8252  54.8811  54.8851
    55.6947  61.5184

          k =-0.3750-0.1250-0.1250 (   338 PWs)   bands (ev):

    34.4061  39.0129  43.9446  43.9606  51.8141  51.8288  54.8789  54.8863
    55.6953  61.5186

          k = 0.3750 0.1250-0.1250 (   338 PWs)   bands (ev):

    34.4061  39.0129  43.9482  43.9570  51.8171  51.8251  54.8811  54.8851
    55.6947  61.5185

          k =-0.3750 0.1250 0.1250 (   338 PWs)   bands (ev):

    34.4061  39.0129  43.9446  43.9606  51.8141  51.8288  54.8789  54.8863
    55.6949  61.5186

          k =-0.1250 0.3750 0.1250 (   338 PWs)   bands (ev):

    34.4061  39.0128  43.9515  43.9540  51.8202  51.8225  54.8822  54.8834
    55.6946  61.5187

          k =-0.1250-0.3750-0.1250 (   338 PWs)   bands (ev):

    34.4061  39.0128  43.9480  43.9575  51.8169  51.8256  54.8807  54.8851
    55.6947  61.5186

          k = 0.1250 0.3750-0.1250 (   338 PWs)   bands (ev):

    34.4061  39.0128  43.9515  43.9540  51.8202  51.8224  54.8821  54.8833
    55.6949  61.5184

          k = 0.1250-0.3750 0.1250 (   338 PWs)   bands (ev):

    34.4061  39.0129  43.9480  43.9574  51.8170  51.8256  54.8807  54.8851
    55.6946  61.5186

          k =-0.1250-0.3750 0.3750 (   340 PWs)   bands (ev):

    37.4214  41.6650  41.6852  44.5488  50.4955  52.9192  52.9460  57.0480
    57.5709  60.7365

          k =-0.1250 0.3750-0.3750 (   340 PWs)   bands (ev):

    37.4213  41.6650  41.6852  44.5488  50.4954  52.9191  52.9460  57.0476
    57.5714  60.7365

          k = 0.1250-0.3750-0.3750 (   340 PWs)   bands (ev):

    37.4214  41.6566  41.6935  44.5490  50.4953  52.9080  52.9573  57.0482
    57.5702  60.7349

          k = 0.3750 0.1250-0.3750 (   340 PWs)   bands (ev):

    37.4214  41.6722  41.6778  44.5488  50.4953  52.9290  52.9364  57.0487
    57.5702  60.7386

          k =-0.3750-0.1250-0.3750 (   340 PWs)   bands (ev):

    37.4214  41.6642  41.6859  44.5487  50.4956  52.9183  52.9472  57.0488
    57.5698  60.7417

          k = 0.3750-0.1250 0.3750 (   340 PWs)   bands (ev):

    37.4214  41.6642  41.6859  44.5488  50.4954  52.9182  52.9471  57.0490
    57.5699  60.7367

          k =-0.3750 0.1250 0.3750 (   340 PWs)   bands (ev):

    37.4214  41.6722  41.6778  44.5488  50.4954  52.9291  52.9365  57.0483
    57.5702  60.7388

          k = 0.3750-0.3750 0.1250 (   340 PWs)   bands (ev):

    37.4214  41.6651  41.6850  44.5489  50.4951  52.9194  52.9458  57.0489
    57.5700  60.7417

          k =-0.3750-0.3750-0.1250 (   340 PWs)   bands (ev):

    37.4215  41.6533  41.6967  44.5488  50.4955  52.9037  52.9615  57.0468
    57.5719  60.7326

          k = 0.3750 0.3750-0.1250 (   340 PWs)   bands (ev):

    37.4214  41.6534  41.6968  44.5488  50.4953  52.9036  52.9614  57.0489
    57.5699  60.7344

          k =-0.3750 0.3750 0.1250 (   340 PWs)   bands (ev):

    37.4214  41.6650  41.6850  44.5489  50.4954  52.9195  52.9459  57.0443
    57.5745  60.7373

          k =-0.3750-0.3750 0.3750 (   326 PWs)   bands (ev):

    39.8873  43.9842  44.0141  44.0441  47.7846  47.8174  47.8502  51.6521
    66.9753  66.9777

          k =-0.3750 0.3750-0.3750 (   326 PWs)   bands (ev):

    39.8873  43.9919  44.0143  44.0362  47.7931  47.8174  47.8417  51.6521
    66.9768  66.9786

          k = 0.3750-0.3750-0.3750 (   326 PWs)   bands (ev):

    39.8873  43.9878  44.0140  44.0404  47.7887  47.8175  47.8463  51.6520
    66.9770  66.9793

     the Fermi energy is    52.6631 ev

!    total energy              =    -141.24180698 Ry
     Harris-Foulkes estimate   =    -141.24180749 Ry
     estimated scf accuracy    <       0.00000025 Ry

     total all-electron energy =     -1925.812929 Ry

     The total energy is the sum of the following terms:

     one-electron contribution =      58.67416699 Ry
     hartree contribution      =       0.21201918 Ry
     xc contribution           =     -17.28554362 Ry
     ewald contribution        =     -40.85514766 Ry
     one-center paw contrib.   =    -141.98666130 Ry
     smearing contrib. (-TS)   =      -0.00064058 Ry

     convergence has been achieved in  12 iterations

     Forces acting on atoms (cartesian axes, Ry/au):

     atom    1 type  1   force =     0.00200007   -0.00037644    0.01644317
     atom    2 type  1   force =    -0.00321184    0.00366124    0.01641823
     atom    3 type  1   force =    -0.00058415   -0.00071039   -0.01728035
     atom    4 type  1   force =     0.00179592   -0.00257441   -0.01558106

     Total force =     0.033465     Total SCF correction =     0.000010


     Computing stress (Cartesian axis) and pressure

          total   stress  (Ry/bohr**3)                   (kbar)     P=59676.79
   0.40568011   0.00000128   0.00000074      59677.59      0.19      0.11
   0.00000128   0.40566887  -0.00000104          0.19  59675.94     -0.15
   0.00000074  -0.00000104   0.40567501          0.11     -0.15  59676.84


     Writing output data file fe_scf_fcc_2.save/

     init_run     :      0.50s CPU      0.52s WALL (       1 calls)
     electrons    :      4.35s CPU      4.49s WALL (       1 calls)
     forces       :      0.03s CPU      0.03s WALL (       1 calls)
     stress       :      0.09s CPU      0.09s WALL (       1 calls)

     Called by init_run:
     wfcinit      :      0.07s CPU      0.07s WALL (       1 calls)
     potinit      :      0.24s CPU      0.25s WALL (       1 calls)
     hinit0       :      0.19s CPU      0.20s WALL (       1 calls)

     Called by electrons:
     c_bands      :      1.27s CPU      1.29s WALL (      12 calls)
     sum_band     :      0.20s CPU      0.22s WALL (      12 calls)
     v_of_rho     :      0.03s CPU      0.03s WALL (      13 calls)
     newd         :      0.03s CPU      0.04s WALL (      13 calls)
     PAW_pot      :      3.04s CPU      3.16s WALL (      13 calls)
     mix_rho      :      0.01s CPU      0.00s WALL (      12 calls)

     Called by c_bands:
     init_us_2    :      0.09s CPU      0.09s WALL (     864 calls)
     cegterg      :      1.15s CPU      1.15s WALL (     384 calls)

     Called by sum_band:
     sum_band:bec :      0.00s CPU      0.00s WALL (     384 calls)
     addusdens    :      0.02s CPU      0.02s WALL (      12 calls)

     Called by *egterg:
     h_psi        :      0.77s CPU      0.73s WALL (    1122 calls)
     s_psi        :      0.03s CPU      0.08s WALL (    1122 calls)
     g_psi        :      0.01s CPU      0.01s WALL (     706 calls)
     cdiaghg      :      0.17s CPU      0.17s WALL (    1090 calls)

     Called by h_psi:
     h_psi:pot    :      0.76s CPU      0.73s WALL (    1122 calls)
     h_psi:calbec :      0.10s CPU      0.08s WALL (    1122 calls)
     vloc_psi     :      0.56s CPU      0.57s WALL (    1122 calls)
     add_vuspsi   :      0.10s CPU      0.08s WALL (    1122 calls)

     General routines
     calbec       :      0.12s CPU      0.12s WALL (    1666 calls)
     fft          :      0.00s CPU      0.01s WALL (     169 calls)
     ffts         :      0.00s CPU      0.00s WALL (      12 calls)
     fftw         :      0.51s CPU      0.55s WALL (   23620 calls)

     Parallel routines

     PWSCF        :     5.39s CPU         5.57s WALL


   This run was terminated on:  23:18:30  19Oct2019            

=------------------------------------------------------------------------------=
   JOB DONE.
=------------------------------------------------------------------------------=
