
     Program PWSCF v.6.3 starts on 22Oct2019 at 19: 5:31 

     This program is part of the open-source Quantum ESPRESSO suite
     for quantum simulation of materials; please cite
         "P. Giannozzi et al., J. Phys.:Condens. Matter 21 395502 (2009);
         "P. Giannozzi et al., J. Phys.:Condens. Matter 29 465901 (2017);
          URL http://www.quantum-espresso.org", 
     in publications or presentations arising from this work. More details at
     http://www.quantum-espresso.org/quote

     Parallel version (MPI & OpenMP), running on      20 processor cores
     Number of MPI processes:                20
     Threads/MPI process:                     1

     MPI processes distributed on     1 nodes
     R & G space division:  proc/nbgrp/npool/nimage =      20
     Reading input from /rds/homes/b/bxp912/jobs/20191022_test/wd/runpwscf/file_10115.in
Warning: card &IONS ignored
Warning: card ION_DYNAMICS = 'BFGS', ignored
Warning: card / ignored
Warning: card &CELL ignored
Warning: card CELL_DYNAMICS = 'BFGS', ignored
Warning: card CELL_FACTOR = 2.0, ignored
Warning: card PRESS = 0.0, ignored
Warning: card / ignored

     Current dimensions of program PWSCF are:
     Max number of different atomic species (ntypx) = 10
     Max number of k-points (npk) =  40000
     Max angular momentum in pseudopotentials (lmaxx) =  3
     Message from routine read_upf::
     Pseudo file /rds/homes/b/bxp912/pp/Al.pbe-nl-kjpaw_psl.1.0.0.UPF has been successfully fixed on the fly.
To avoid this message in the future you can permanently fix 
 your pseudo files following instructions given in: 
https://gitlab.com/QEF/q-e/blob/master/upftools/how_to_fix_upf.md
               file Al.pbe-nl-kjpaw_psl.1.0.0.UPF: wavefunction(s)  3S 3P renormalized

     Subspace diagonalization in iterative solution of the eigenvalue problem:
     a serial algorithm will be used

 
     Parallelization info
     --------------------
     sticks:   dense  smooth     PW     G-vecs:    dense   smooth      PW
     Min          10      10      6                  114      114      58
     Max          11      11      7                  117      117      63
     Sum         213     213    137                 2301     2301    1213
 


     bravais-lattice index     =            0
     lattice parameter (alat)  =       4.0400  a.u.
     unit-cell volume          =      65.9393 (a.u.)^3
     number of atoms/cell      =            4
     number of atomic types    =            1
     number of electrons       =        12.00
     number of Kohn-Sham states=           10
     kinetic-energy cutoff     =      85.0000  Ry
     charge density cutoff     =     160.0000  Ry
     convergence threshold     =      1.0E-06
     mixing beta               =       0.1000
     number of iterations used =           10  TF        mixing
     Exchange-correlation      = SLA PW PBX PBC ( 1  4  3  4 0 0)

     celldm(1)=   4.040000  celldm(2)=   0.000000  celldm(3)=   0.000000
     celldm(4)=   0.000000  celldm(5)=   0.000000  celldm(6)=   0.000000

     crystal axes: (cart. coord. in units of alat)
               a(1) = (   1.000000   0.000000   0.000000 )  
               a(2) = (   0.000000   1.000000   0.000000 )  
               a(3) = (   0.000000   0.000000   1.000000 )  

     reciprocal axes: (cart. coord. in units 2 pi/alat)
               b(1) = (  1.000000  0.000000  0.000000 )  
               b(2) = (  0.000000  1.000000  0.000000 )  
               b(3) = (  0.000000  0.000000  1.000000 )  


     PseudoPot. # 1 for Al read from file:
     /rds/homes/b/bxp912/pp/Al.pbe-nl-kjpaw_psl.1.0.0.UPF
     MD5 check sum: 339dbea23cf3ab9a065ad45c0f9085d7
     Pseudo is Projector augmented-wave + core cor, Zval =  3.0
     Generated using "atomic" code by A. Dal Corso v.5.1
     Shape of augmentation charge: PSQ
     Using radial grid of 1135 points,  4 beta functions with: 
                l(1) =   0
                l(2) =   0
                l(3) =   1
                l(4) =   1
     Q(r) pseudized with 0 coefficients 


     atomic species   valence    mass     pseudopotential
        Al             3.00    26.98200     Al( 1.00)

     No symmetry found



   Cartesian axes

     site n.     atom                  positions (alat units)
         1           Al  tau(   1) = (  -0.0001235   0.0000359   0.0002572  )
         2           Al  tau(   2) = (   0.5003009   0.4992819   0.0002658  )
         3           Al  tau(   3) = (   0.4996490   0.0001153   0.5011170  )
         4           Al  tau(   4) = (  -0.0000756   0.5008267   0.5006943  )

     number of k points=    32  Marzari-Vanderbilt smearing, width (Ry)=  0.0200
                       cart. coord. in units 2pi/alat
        k(    1) = (   0.1250000   0.1250000   0.1250000), wk =   0.0625000
        k(    2) = (   0.1250000   0.1250000   0.3750000), wk =   0.0625000
        k(    3) = (   0.1250000   0.3750000   0.3750000), wk =   0.0625000
        k(    4) = (   0.3750000   0.3750000   0.3750000), wk =   0.0625000
        k(    5) = (  -0.1250000  -0.1250000   0.1250000), wk =   0.0625000
        k(    6) = (  -0.1250000   0.1250000  -0.1250000), wk =   0.0625000
        k(    7) = (   0.1250000  -0.1250000  -0.1250000), wk =   0.0625000
        k(    8) = (  -0.1250000  -0.1250000   0.3750000), wk =   0.0625000
        k(    9) = (  -0.1250000   0.1250000  -0.3750000), wk =   0.0625000
        k(   10) = (   0.1250000  -0.1250000  -0.3750000), wk =   0.0625000
        k(   11) = (   0.3750000  -0.1250000   0.1250000), wk =   0.0625000
        k(   12) = (  -0.3750000  -0.1250000  -0.1250000), wk =   0.0625000
        k(   13) = (   0.3750000   0.1250000  -0.1250000), wk =   0.0625000
        k(   14) = (  -0.3750000   0.1250000   0.1250000), wk =   0.0625000
        k(   15) = (  -0.1250000   0.3750000   0.1250000), wk =   0.0625000
        k(   16) = (  -0.1250000  -0.3750000  -0.1250000), wk =   0.0625000
        k(   17) = (   0.1250000   0.3750000  -0.1250000), wk =   0.0625000
        k(   18) = (   0.1250000  -0.3750000   0.1250000), wk =   0.0625000
        k(   19) = (  -0.1250000  -0.3750000   0.3750000), wk =   0.0625000
        k(   20) = (  -0.1250000   0.3750000  -0.3750000), wk =   0.0625000
        k(   21) = (   0.1250000  -0.3750000  -0.3750000), wk =   0.0625000
        k(   22) = (   0.3750000   0.1250000  -0.3750000), wk =   0.0625000
        k(   23) = (  -0.3750000  -0.1250000  -0.3750000), wk =   0.0625000
        k(   24) = (   0.3750000  -0.1250000   0.3750000), wk =   0.0625000
        k(   25) = (  -0.3750000   0.1250000   0.3750000), wk =   0.0625000
        k(   26) = (   0.3750000  -0.3750000   0.1250000), wk =   0.0625000
        k(   27) = (  -0.3750000  -0.3750000  -0.1250000), wk =   0.0625000
        k(   28) = (   0.3750000   0.3750000  -0.1250000), wk =   0.0625000
        k(   29) = (  -0.3750000   0.3750000   0.1250000), wk =   0.0625000
        k(   30) = (  -0.3750000  -0.3750000   0.3750000), wk =   0.0625000
        k(   31) = (  -0.3750000   0.3750000  -0.3750000), wk =   0.0625000
        k(   32) = (   0.3750000  -0.3750000  -0.3750000), wk =   0.0625000

     Dense  grid:     2301 G-vectors     FFT dimensions: (  18,  18,  18)

     Estimated max dynamical RAM per process >       0.66 MB

     Estimated total dynamical RAM >      13.19 MB

     Initial potential from superposition of free atoms

     starting charge   11.99084, renormalised to   12.00000
     Starting wfcs are   16 randomized atomic wfcs
     Checking if some PAW data can be deallocated... 

     total cpu time spent up to now is        0.8 secs

     Self-consistent Calculation

     iteration #  1     ecut=    85.00 Ry     beta= 0.10
     Davidson diagonalization with overlap
     ethr =  1.00E-02,  avg # of iterations =  4.9

     total cpu time spent up to now is        1.0 secs

     total energy              =    -141.65279248 Ry
     Harris-Foulkes estimate   =    -141.80706737 Ry
     estimated scf accuracy    <       0.18116516 Ry

     iteration #  2     ecut=    85.00 Ry     beta= 0.10
     Davidson diagonalization with overlap
     ethr =  1.51E-03,  avg # of iterations =  1.0

     total cpu time spent up to now is        1.1 secs

     total energy              =    -141.16229340 Ry
     Harris-Foulkes estimate   =    -141.65533701 Ry
     estimated scf accuracy    <       0.15196797 Ry

     iteration #  3     ecut=    85.00 Ry     beta= 0.10
     Davidson diagonalization with overlap
     ethr =  1.27E-03,  avg # of iterations =  2.0

     total cpu time spent up to now is        1.2 secs

     total energy              =    -141.24292250 Ry
     Harris-Foulkes estimate   =    -141.25403216 Ry
     estimated scf accuracy    <       0.01541688 Ry

     iteration #  4     ecut=    85.00 Ry     beta= 0.10
     Davidson diagonalization with overlap
     ethr =  1.28E-04,  avg # of iterations =  1.0

     total cpu time spent up to now is        1.3 secs

     total energy              =    -141.24161169 Ry
     Harris-Foulkes estimate   =    -141.24334282 Ry
     estimated scf accuracy    <       0.01231477 Ry

     iteration #  5     ecut=    85.00 Ry     beta= 0.10
     Davidson diagonalization with overlap
     ethr =  1.03E-04,  avg # of iterations =  1.0

     total cpu time spent up to now is        1.4 secs

     total energy              =    -141.24337301 Ry
     Harris-Foulkes estimate   =    -141.24267932 Ry
     estimated scf accuracy    <       0.00078058 Ry

     iteration #  6     ecut=    85.00 Ry     beta= 0.10
     Davidson diagonalization with overlap
     ethr =  6.50E-06,  avg # of iterations =  2.5

     total cpu time spent up to now is        1.5 secs

     total energy              =    -141.24363816 Ry
     Harris-Foulkes estimate   =    -141.24361755 Ry
     estimated scf accuracy    <       0.00013224 Ry

     iteration #  7     ecut=    85.00 Ry     beta= 0.10
     Davidson diagonalization with overlap
     ethr =  1.10E-06,  avg # of iterations =  1.2

     total cpu time spent up to now is        1.6 secs

     total energy              =    -141.24281062 Ry
     Harris-Foulkes estimate   =    -141.24364020 Ry
     estimated scf accuracy    <       0.00011375 Ry

     iteration #  8     ecut=    85.00 Ry     beta= 0.10
     Davidson diagonalization with overlap
     ethr =  9.48E-07,  avg # of iterations =  2.2

     total cpu time spent up to now is        1.7 secs

     total energy              =    -141.24298490 Ry
     Harris-Foulkes estimate   =    -141.24289019 Ry
     estimated scf accuracy    <       0.00006472 Ry

     iteration #  9     ecut=    85.00 Ry     beta= 0.10
     Davidson diagonalization with overlap
     ethr =  5.39E-07,  avg # of iterations =  2.0

     total cpu time spent up to now is        1.8 secs

     total energy              =    -141.24286585 Ry
     Harris-Foulkes estimate   =    -141.24299414 Ry
     estimated scf accuracy    <       0.00000930 Ry

     iteration # 10     ecut=    85.00 Ry     beta= 0.10
     Davidson diagonalization with overlap
     ethr =  7.75E-08,  avg # of iterations =  3.0

     total cpu time spent up to now is        2.0 secs

     total energy              =    -141.24287269 Ry
     Harris-Foulkes estimate   =    -141.24287554 Ry
     estimated scf accuracy    <       0.00000389 Ry

     iteration # 11     ecut=    85.00 Ry     beta= 0.10
     Davidson diagonalization with overlap
     ethr =  3.24E-08,  avg # of iterations =  1.0

     total cpu time spent up to now is        2.1 secs

     total energy              =    -141.24287137 Ry
     Harris-Foulkes estimate   =    -141.24287278 Ry
     estimated scf accuracy    <       0.00000105 Ry

     iteration # 12     ecut=    85.00 Ry     beta= 0.10
     Davidson diagonalization with overlap
     ethr =  8.76E-09,  avg # of iterations =  1.1

     total cpu time spent up to now is        2.2 secs

     End of self-consistent calculation

          k = 0.1250 0.1250 0.1250 (   865 PWs)   bands (ev):

    30.9135  41.4369  41.4560  41.4747  52.4289  52.4492  52.4693  54.9307
    54.9406  54.9507

          k = 0.1250 0.1250 0.3750 (   868 PWs)   bands (ev):

    34.4062  39.0127  43.9420  43.9609  51.8111  51.8284  54.8772  54.8858
    55.6922  61.5167

          k = 0.1250 0.3750 0.3750 (   873 PWs)   bands (ev):

    37.4214  41.6562  41.6932  44.5484  50.4936  52.9062  52.9554  57.0463
    57.5681  60.7319

          k = 0.3750 0.3750 0.3750 (   892 PWs)   bands (ev):

    39.8869  43.9757  44.0137  44.0514  47.7745  47.8160  47.8575  51.6500
    66.9736  66.9766

          k =-0.1250-0.1250 0.1250 (   865 PWs)   bands (ev):

    30.9135  41.4409  41.4559  41.4708  52.4332  52.4491  52.4651  54.9328
    54.9407  54.9486

          k =-0.1250 0.1250-0.1250 (   865 PWs)   bands (ev):

    30.9135  41.4447  41.4559  41.4669  52.4373  52.4492  52.4609  54.9349
    54.9407  54.9465

          k = 0.1250-0.1250-0.1250 (   865 PWs)   bands (ev):

    30.9135  41.4427  41.4559  41.4689  52.4351  52.4492  52.4632  54.9338
    54.9407  54.9476

          k =-0.1250-0.1250 0.3750 (   868 PWs)   bands (ev):

    34.4062  39.0127  43.9420  43.9608  51.8111  51.8284  54.8772  54.8859
    55.6920  61.5169

          k =-0.1250 0.1250-0.3750 (   868 PWs)   bands (ev):

    34.4062  39.0127  43.9471  43.9557  51.8158  51.8237  54.8795  54.8835
    55.6920  61.5167

          k = 0.1250-0.1250-0.3750 (   868 PWs)   bands (ev):

    34.4062  39.0127  43.9471  43.9558  51.8157  51.8236  54.8795  54.8835
    55.6922  61.5165

          k = 0.3750-0.1250 0.1250 (   868 PWs)   bands (ev):

    34.4062  39.0126  43.9471  43.9558  51.8155  51.8236  54.8797  54.8837
    55.6922  61.5169

          k =-0.3750-0.1250-0.1250 (   868 PWs)   bands (ev):

    34.4062  39.0126  43.9434  43.9595  51.8125  51.8272  54.8775  54.8849
    55.6928  61.5170

          k = 0.3750 0.1250-0.1250 (   868 PWs)   bands (ev):

    34.4062  39.0126  43.9471  43.9558  51.8155  51.8235  54.8797  54.8837
    55.6923  61.5170

          k =-0.3750 0.1250 0.1250 (   868 PWs)   bands (ev):

    34.4062  39.0126  43.9434  43.9595  51.8125  51.8272  54.8776  54.8849
    55.6924  61.5170

          k =-0.1250 0.3750 0.1250 (   868 PWs)   bands (ev):

    34.4062  39.0125  43.9504  43.9528  51.8186  51.8209  54.8809  54.8820
    55.6921  61.5169

          k =-0.1250-0.3750-0.1250 (   868 PWs)   bands (ev):

    34.4062  39.0125  43.9469  43.9563  51.8153  51.8240  54.8793  54.8837
    55.6922  61.5170

          k = 0.1250 0.3750-0.1250 (   868 PWs)   bands (ev):

    34.4062  39.0125  43.9504  43.9528  51.8186  51.8208  54.8807  54.8819
    55.6925  61.5169

          k = 0.1250-0.3750 0.1250 (   868 PWs)   bands (ev):

    34.4062  39.0125  43.9469  43.9563  51.8154  51.8240  54.8793  54.8837
    55.6921  61.5169

          k =-0.1250-0.3750 0.3750 (   873 PWs)   bands (ev):

    37.4213  41.6647  41.6848  44.5482  50.4937  52.9173  52.9441  57.0456
    57.5690  60.7350

          k =-0.1250 0.3750-0.3750 (   873 PWs)   bands (ev):

    37.4213  41.6647  41.6848  44.5483  50.4937  52.9173  52.9441  57.0452
    57.5695  60.7367

          k = 0.1250-0.3750-0.3750 (   873 PWs)   bands (ev):

    37.4213  41.6562  41.6932  44.5484  50.4936  52.9062  52.9554  57.0459
    57.5684  60.7318

          k = 0.3750 0.1250-0.3750 (   873 PWs)   bands (ev):

    37.4213  41.6719  41.6775  44.5483  50.4935  52.9271  52.9345  57.0463
    57.5683  60.7361

          k =-0.3750-0.1250-0.3750 (   873 PWs)   bands (ev):

    37.4213  41.6639  41.6855  44.5482  50.4938  52.9164  52.9453  57.0465
    57.5679  60.7341

          k = 0.3750-0.1250 0.3750 (   873 PWs)   bands (ev):

    37.4213  41.6639  41.6856  44.5482  50.4936  52.9163  52.9452  57.0466
    57.5680  60.7350

          k =-0.3750 0.1250 0.3750 (   873 PWs)   bands (ev):

    37.4213  41.6719  41.6775  44.5483  50.4937  52.9272  52.9346  57.0459
    57.5683  60.7368

          k = 0.3750-0.3750 0.1250 (   873 PWs)   bands (ev):

    37.4214  41.6647  41.6846  44.5483  50.4934  52.9175  52.9439  57.0465
    57.5681  60.7359

          k =-0.3750-0.3750-0.1250 (   873 PWs)   bands (ev):

    37.4214  41.6530  41.6964  44.5482  50.4938  52.9018  52.9596  57.0445
    57.5701  60.7327

          k = 0.3750 0.3750-0.1250 (   873 PWs)   bands (ev):

    37.4214  41.6530  41.6964  44.5482  50.4936  52.9018  52.9595  57.0466
    57.5680  60.7334

          k =-0.3750 0.3750 0.1250 (   873 PWs)   bands (ev):

    37.4214  41.6647  41.6846  44.5483  50.4937  52.9176  52.9440  57.0419
    57.5726  60.7359

          k =-0.3750-0.3750 0.3750 (   892 PWs)   bands (ev):

    39.8869  43.9836  44.0137  44.0434  47.7832  47.8159  47.8488  51.6501
    66.9745  66.9768

          k =-0.3750 0.3750-0.3750 (   892 PWs)   bands (ev):

    39.8868  43.9914  44.0136  44.0357  47.7917  47.8159  47.8402  51.6502
    66.9747  66.9763

          k = 0.3750-0.3750-0.3750 (   892 PWs)   bands (ev):

    39.8869  43.9872  44.0136  44.0398  47.7872  47.8160  47.8449  51.6500
    66.9740  66.9770

     the Fermi energy is    52.6608 ev

!    total energy              =    -141.24287120 Ry
     Harris-Foulkes estimate   =    -141.24287143 Ry
     estimated scf accuracy    <       0.00000022 Ry

     total all-electron energy =     -1925.813999 Ry

     The total energy is the sum of the following terms:

     one-electron contribution =      58.67287724 Ry
     hartree contribution      =       0.21192932 Ry
     xc contribution           =     -17.28529254 Ry
     ewald contribution        =     -40.85514931 Ry
     one-center paw contrib.   =    -141.98660489 Ry
     smearing contrib. (-TS)   =      -0.00063101 Ry

     convergence has been achieved in  12 iterations

     Forces acting on atoms (cartesian axes, Ry/au):

     atom    1 type  1   force =     0.00200591   -0.00037761    0.01644642
     atom    2 type  1   force =    -0.00322417    0.00370648    0.01641960
     atom    3 type  1   force =    -0.00056623   -0.00071703   -0.01728833
     atom    4 type  1   force =     0.00178450   -0.00261183   -0.01557769

     Total force =     0.033478     Total SCF correction =     0.000008


     Computing stress (Cartesian axis) and pressure

          total   stress  (Ry/bohr**3)                   (kbar)     P=59674.48
   0.40566449   0.00000131   0.00000077      59675.30      0.19      0.11
   0.00000131   0.40565298  -0.00000094          0.19  59673.60     -0.14
   0.00000077  -0.00000094   0.40565937          0.11     -0.14  59674.54


     Writing output data file fe_scf_fcc_2.save/
 
     init_run     :      0.13s CPU      0.17s WALL (       1 calls)
     electrons    :      1.25s CPU      1.41s WALL (       1 calls)
     forces       :      0.01s CPU      0.01s WALL (       1 calls)
     stress       :      0.01s CPU      0.01s WALL (       1 calls)

     Called by init_run:
     wfcinit      :      0.05s CPU      0.06s WALL (       1 calls)
     potinit      :      0.01s CPU      0.02s WALL (       1 calls)
     hinit0       :      0.03s CPU      0.06s WALL (       1 calls)

     Called by electrons:
     c_bands      :      0.95s CPU      1.07s WALL (      12 calls)
     sum_band     :      0.15s CPU      0.17s WALL (      12 calls)
     v_of_rho     :      0.01s CPU      0.01s WALL (      13 calls)
     newd         :      0.00s CPU      0.00s WALL (      13 calls)
     PAW_pot      :      0.15s CPU      0.17s WALL (      13 calls)
     mix_rho      :      0.00s CPU      0.00s WALL (      12 calls)

     Called by c_bands:
     init_us_2    :      0.01s CPU      0.01s WALL (     864 calls)
     cegterg      :      0.91s CPU      1.02s WALL (     384 calls)

     Called by sum_band:
     sum_band:bec :      0.00s CPU      0.00s WALL (     384 calls)
     addusdens    :      0.00s CPU      0.00s WALL (      12 calls)

     Called by *egterg:
     h_psi        :      0.64s CPU      0.73s WALL (    1149 calls)
     s_psi        :      0.01s CPU      0.01s WALL (    1149 calls)
     g_psi        :      0.00s CPU      0.00s WALL (     733 calls)
     cdiaghg      :      0.18s CPU      0.20s WALL (    1117 calls)

     Called by h_psi:
     h_psi:pot    :      0.64s CPU      0.73s WALL (    1149 calls)
     h_psi:calbec :      0.06s CPU      0.07s WALL (    1149 calls)
     vloc_psi     :      0.56s CPU      0.64s WALL (    1149 calls)
     add_vuspsi   :      0.01s CPU      0.01s WALL (    1149 calls)

     General routines
     calbec       :      0.09s CPU      0.10s WALL (    1693 calls)
     fft          :      0.03s CPU      0.06s WALL (     169 calls)
     ffts         :      0.00s CPU      0.00s WALL (      12 calls)
     fftw         :      0.64s CPU      0.72s WALL (   23668 calls)
 
     Parallel routines
     fft_scatt_xy :      0.04s CPU      0.04s WALL (   23849 calls)
     fft_scatt_yz :      0.51s CPU      0.58s WALL (   23849 calls)
 
     PWSCF        :     2.02s CPU         2.45s WALL

 
   This run was terminated on:  19: 5:34  22Oct2019            

=------------------------------------------------------------------------------=
   JOB DONE.
=------------------------------------------------------------------------------=
