
     Program PWSCF v.6.3 starts on 20Oct2019 at  2:57:10 

     This program is part of the open-source Quantum ESPRESSO suite
     for quantum simulation of materials; please cite
         "P. Giannozzi et al., J. Phys.:Condens. Matter 21 395502 (2009);
         "P. Giannozzi et al., J. Phys.:Condens. Matter 29 465901 (2017);
          URL http://www.quantum-espresso.org", 
     in publications or presentations arising from this work. More details at
     http://www.quantum-espresso.org/quote

     Parallel version (MPI), running on     1 processors

     MPI processes distributed on     1 nodes
     Reading input from /cloud/Code/python/py_pwscf_converge/src/example/wd/runpwscf/file_10141.in
Warning: card &IONS ignored
Warning: card ION_DYNAMICS = 'BFGS', ignored
Warning: card / ignored
Warning: card &CELL ignored
Warning: card CELL_DYNAMICS = 'BFGS', ignored
Warning: card CELL_FACTOR = 2.0, ignored
Warning: card PRESS = 0.0, ignored
Warning: card / ignored

     Current dimensions of program PWSCF are:
     Max number of different atomic species (ntypx) = 10
     Max number of k-points (npk) =  40000
     Max angular momentum in pseudopotentials (lmaxx) =  3
               file Al.pbe-nl-kjpaw_psl.1.0.0.UPF: wavefunction(s)  3S 3P renormalized

     Subspace diagonalization in iterative solution of the eigenvalue problem:
     a serial algorithm will be used


     G-vector sticks info
     --------------------
     sticks:   dense  smooth     PW     G-vecs:    dense   smooth      PW
     Sum         341     341    137                 4697     4697    1213



     bravais-lattice index     =            0
     lattice parameter (alat)  =       4.0400  a.u.
     unit-cell volume          =      65.9393 (a.u.)^3
     number of atoms/cell      =            4
     number of atomic types    =            1
     number of electrons       =        12.00
     number of Kohn-Sham states=           10
     kinetic-energy cutoff     =      85.0000  Ry
     charge density cutoff     =     260.0000  Ry
     convergence threshold     =      1.0E-06
     mixing beta               =       0.1000
     number of iterations used =           10  TF        mixing
     Exchange-correlation      = SLA PW PBX PBC ( 1  4  3  4 0 0)

     celldm(1)=   4.040000  celldm(2)=   0.000000  celldm(3)=   0.000000
     celldm(4)=   0.000000  celldm(5)=   0.000000  celldm(6)=   0.000000

     crystal axes: (cart. coord. in units of alat)
               a(1) = (   1.000000   0.000000   0.000000 )  
               a(2) = (   0.000000   1.000000   0.000000 )  
               a(3) = (   0.000000   0.000000   1.000000 )  

     reciprocal axes: (cart. coord. in units 2 pi/alat)
               b(1) = (  1.000000  0.000000  0.000000 )  
               b(2) = (  0.000000  1.000000  0.000000 )  
               b(3) = (  0.000000  0.000000  1.000000 )  


     PseudoPot. # 1 for Al read from file:
     /opt/pp/Al.pbe-nl-kjpaw_psl.1.0.0.UPF
     MD5 check sum: 1b67f78b73fe58c7924490f171ce8a1e
     Pseudo is Projector augmented-wave + core cor, Zval =  3.0
     Generated using "atomic" code by A. Dal Corso v.6.3
     Shape of augmentation charge: PSQ
     Using radial grid of 1135 points,  4 beta functions with: 
                l(1) =   0
                l(2) =   0
                l(3) =   1
                l(4) =   1
     Q(r) pseudized with 0 coefficients 


     atomic species   valence    mass     pseudopotential
        Al             3.00    26.98200     Al( 1.00)

     No symmetry found



   Cartesian axes

     site n.     atom                  positions (alat units)
         1           Al  tau(   1) = (  -0.0001235   0.0000359   0.0002572  )
         2           Al  tau(   2) = (   0.5003009   0.4992819   0.0002658  )
         3           Al  tau(   3) = (   0.4996490   0.0001153   0.5011170  )
         4           Al  tau(   4) = (  -0.0000756   0.5008267   0.5006943  )

     number of k points=    32  Marzari-Vanderbilt smearing, width (Ry)=  0.0200
                       cart. coord. in units 2pi/alat
        k(    1) = (   0.1250000   0.1250000   0.1250000), wk =   0.0625000
        k(    2) = (   0.1250000   0.1250000   0.3750000), wk =   0.0625000
        k(    3) = (   0.1250000   0.3750000   0.3750000), wk =   0.0625000
        k(    4) = (   0.3750000   0.3750000   0.3750000), wk =   0.0625000
        k(    5) = (  -0.1250000  -0.1250000   0.1250000), wk =   0.0625000
        k(    6) = (  -0.1250000   0.1250000  -0.1250000), wk =   0.0625000
        k(    7) = (   0.1250000  -0.1250000  -0.1250000), wk =   0.0625000
        k(    8) = (  -0.1250000  -0.1250000   0.3750000), wk =   0.0625000
        k(    9) = (  -0.1250000   0.1250000  -0.3750000), wk =   0.0625000
        k(   10) = (   0.1250000  -0.1250000  -0.3750000), wk =   0.0625000
        k(   11) = (   0.3750000  -0.1250000   0.1250000), wk =   0.0625000
        k(   12) = (  -0.3750000  -0.1250000  -0.1250000), wk =   0.0625000
        k(   13) = (   0.3750000   0.1250000  -0.1250000), wk =   0.0625000
        k(   14) = (  -0.3750000   0.1250000   0.1250000), wk =   0.0625000
        k(   15) = (  -0.1250000   0.3750000   0.1250000), wk =   0.0625000
        k(   16) = (  -0.1250000  -0.3750000  -0.1250000), wk =   0.0625000
        k(   17) = (   0.1250000   0.3750000  -0.1250000), wk =   0.0625000
        k(   18) = (   0.1250000  -0.3750000   0.1250000), wk =   0.0625000
        k(   19) = (  -0.1250000  -0.3750000   0.3750000), wk =   0.0625000
        k(   20) = (  -0.1250000   0.3750000  -0.3750000), wk =   0.0625000
        k(   21) = (   0.1250000  -0.3750000  -0.3750000), wk =   0.0625000
        k(   22) = (   0.3750000   0.1250000  -0.3750000), wk =   0.0625000
        k(   23) = (  -0.3750000  -0.1250000  -0.3750000), wk =   0.0625000
        k(   24) = (   0.3750000  -0.1250000   0.3750000), wk =   0.0625000
        k(   25) = (  -0.3750000   0.1250000   0.3750000), wk =   0.0625000
        k(   26) = (   0.3750000  -0.3750000   0.1250000), wk =   0.0625000
        k(   27) = (  -0.3750000  -0.3750000  -0.1250000), wk =   0.0625000
        k(   28) = (   0.3750000   0.3750000  -0.1250000), wk =   0.0625000
        k(   29) = (  -0.3750000   0.3750000   0.1250000), wk =   0.0625000
        k(   30) = (  -0.3750000  -0.3750000   0.3750000), wk =   0.0625000
        k(   31) = (  -0.3750000   0.3750000  -0.3750000), wk =   0.0625000
        k(   32) = (   0.3750000  -0.3750000  -0.3750000), wk =   0.0625000

     Dense  grid:     4697 G-vectors     FFT dimensions: (  24,  24,  24)

     Estimated max dynamical RAM per process >      12.09 MB

     Initial potential from superposition of free atoms

     starting charge   11.99084, renormalised to   12.00000
     Starting wfcs are   16 randomized atomic wfcs
     Checking if some PAW data can be deallocated... 

     total cpu time spent up to now is        2.8 secs

     Self-consistent Calculation

     iteration #  1     ecut=    85.00 Ry     beta= 0.10
     Davidson diagonalization with overlap
     ethr =  1.00E-02,  avg # of iterations =  4.9

     total cpu time spent up to now is        4.4 secs

     total energy              =    -141.65265882 Ry
     Harris-Foulkes estimate   =    -141.80693874 Ry
     estimated scf accuracy    <       0.18118586 Ry

     iteration #  2     ecut=    85.00 Ry     beta= 0.10
     Davidson diagonalization with overlap
     ethr =  1.51E-03,  avg # of iterations =  1.0

     total cpu time spent up to now is        5.3 secs

     total energy              =    -141.16238385 Ry
     Harris-Foulkes estimate   =    -141.65533687 Ry
     estimated scf accuracy    <       0.15200927 Ry

     iteration #  3     ecut=    85.00 Ry     beta= 0.10
     Davidson diagonalization with overlap
     ethr =  1.27E-03,  avg # of iterations =  2.0

     total cpu time spent up to now is        6.4 secs

     total energy              =    -141.24328370 Ry
     Harris-Foulkes estimate   =    -141.25481793 Ry
     estimated scf accuracy    <       0.01551871 Ry

     iteration #  4     ecut=    85.00 Ry     beta= 0.10
     Davidson diagonalization with overlap
     ethr =  1.29E-04,  avg # of iterations =  1.0

     total cpu time spent up to now is        7.3 secs

     total energy              =    -141.24157149 Ry
     Harris-Foulkes estimate   =    -141.24371118 Ry
     estimated scf accuracy    <       0.01239419 Ry

     iteration #  5     ecut=    85.00 Ry     beta= 0.10
     Davidson diagonalization with overlap
     ethr =  1.03E-04,  avg # of iterations =  1.0

     total cpu time spent up to now is        8.2 secs

     total energy              =    -141.24345046 Ry
     Harris-Foulkes estimate   =    -141.24263581 Ry
     estimated scf accuracy    <       0.00077146 Ry

     iteration #  6     ecut=    85.00 Ry     beta= 0.10
     Davidson diagonalization with overlap
     ethr =  6.43E-06,  avg # of iterations =  2.7

     total cpu time spent up to now is        9.3 secs

     total energy              =    -141.24371878 Ry
     Harris-Foulkes estimate   =    -141.24370769 Ry
     estimated scf accuracy    <       0.00011065 Ry

     iteration #  7     ecut=    85.00 Ry     beta= 0.10
     Davidson diagonalization with overlap
     ethr =  9.22E-07,  avg # of iterations =  1.2

     total cpu time spent up to now is       10.2 secs

     total energy              =    -141.24276983 Ry
     Harris-Foulkes estimate   =    -141.24372042 Ry
     estimated scf accuracy    <       0.00009082 Ry

     iteration #  8     ecut=    85.00 Ry     beta= 0.10
     Davidson diagonalization with overlap
     ethr =  7.57E-07,  avg # of iterations =  2.9

     total cpu time spent up to now is       11.4 secs

     total energy              =    -141.24293716 Ry
     Harris-Foulkes estimate   =    -141.24285426 Ry
     estimated scf accuracy    <       0.00001928 Ry

     iteration #  9     ecut=    85.00 Ry     beta= 0.10
     Davidson diagonalization with overlap
     ethr =  1.61E-07,  avg # of iterations =  2.0

     total cpu time spent up to now is       12.4 secs

     total energy              =    -141.24283186 Ry
     Harris-Foulkes estimate   =    -141.24294311 Ry
     estimated scf accuracy    <       0.00000784 Ry

     iteration # 10     ecut=    85.00 Ry     beta= 0.10
     Davidson diagonalization with overlap
     ethr =  6.53E-08,  avg # of iterations =  3.0

     total cpu time spent up to now is       13.6 secs

     End of self-consistent calculation

          k = 0.1250 0.1250 0.1250 (   865 PWs)   bands (ev):

    30.9115  41.4356  41.4547  41.4735  52.4288  52.4490  52.4692  54.9296
    54.9394  54.9495

          k = 0.1250 0.1250 0.3750 (   868 PWs)   bands (ev):

    34.4044  39.0112  43.9407  43.9595  51.8105  51.8277  54.8763  54.8850
    55.6920  61.5159

          k = 0.1250 0.3750 0.3750 (   873 PWs)   bands (ev):

    37.4198  41.6548  41.6917  44.5470  50.4929  52.9056  52.9547  57.0458
    57.5674  60.7331

          k = 0.3750 0.3750 0.3750 (   892 PWs)   bands (ev):

    39.8856  43.9744  44.0124  44.0502  47.7737  47.8151  47.8566  51.6492
    66.9720  66.9759

          k =-0.1250-0.1250 0.1250 (   865 PWs)   bands (ev):

    30.9115  41.4396  41.4547  41.4695  52.4330  52.4490  52.4649  54.9317
    54.9395  54.9474

          k =-0.1250 0.1250-0.1250 (   865 PWs)   bands (ev):

    30.9115  41.4435  41.4547  41.4656  52.4372  52.4490  52.4608  54.9337
    54.9395  54.9454

          k = 0.1250-0.1250-0.1250 (   865 PWs)   bands (ev):

    30.9115  41.4414  41.4547  41.4677  52.4350  52.4491  52.4630  54.9326
    54.9395  54.9464

          k =-0.1250-0.1250 0.3750 (   868 PWs)   bands (ev):

    34.4044  39.0112  43.9407  43.9595  51.8105  51.8277  54.8764  54.8850
    55.6918  61.5160

          k =-0.1250 0.1250-0.3750 (   868 PWs)   bands (ev):

    34.4044  39.0112  43.9458  43.9544  51.8151  51.8230  54.8787  54.8827
    55.6919  61.5160

          k = 0.1250-0.1250-0.3750 (   868 PWs)   bands (ev):

    34.4044  39.0112  43.9458  43.9544  51.8151  51.8230  54.8787  54.8827
    55.6921  61.5155

          k = 0.3750-0.1250 0.1250 (   868 PWs)   bands (ev):

    34.4045  39.0111  43.9458  43.9545  51.8149  51.8229  54.8788  54.8829
    55.6920  61.5160

          k =-0.3750-0.1250-0.1250 (   868 PWs)   bands (ev):

    34.4045  39.0111  43.9421  43.9582  51.8118  51.8265  54.8766  54.8840
    55.6926  61.5159

          k = 0.3750 0.1250-0.1250 (   868 PWs)   bands (ev):

    34.4045  39.0111  43.9458  43.9545  51.8149  51.8229  54.8788  54.8829
    55.6921  61.5159

          k =-0.3750 0.1250 0.1250 (   868 PWs)   bands (ev):

    34.4045  39.0111  43.9421  43.9581  51.8119  51.8266  54.8767  54.8841
    55.6923  61.5159

          k =-0.1250 0.3750 0.1250 (   868 PWs)   bands (ev):

    34.4045  39.0110  43.9491  43.9515  51.8180  51.8202  54.8800  54.8811
    55.6920  61.5159

          k =-0.1250-0.3750-0.1250 (   868 PWs)   bands (ev):

    34.4045  39.0110  43.9456  43.9550  51.8147  51.8233  54.8785  54.8828
    55.6921  61.5160

          k = 0.1250 0.3750-0.1250 (   868 PWs)   bands (ev):

    34.4045  39.0110  43.9491  43.9515  51.8180  51.8202  54.8798  54.8810
    55.6923  61.5159

          k = 0.1250-0.3750 0.1250 (   868 PWs)   bands (ev):

    34.4045  39.0111  43.9456  43.9550  51.8147  51.8234  54.8785  54.8828
    55.6919  61.5160

          k =-0.1250-0.3750 0.3750 (   873 PWs)   bands (ev):

    37.4197  41.6633  41.6834  44.5468  50.4930  52.9167  52.9435  57.0451
    57.5683  60.7349

          k =-0.1250 0.3750-0.3750 (   873 PWs)   bands (ev):

    37.4197  41.6633  41.6834  44.5469  50.4930  52.9166  52.9434  57.0447
    57.5688  60.7349

          k = 0.1250-0.3750-0.3750 (   873 PWs)   bands (ev):

    37.4198  41.6548  41.6918  44.5470  50.4929  52.9056  52.9547  57.0454
    57.5676  60.7348

          k = 0.3750 0.1250-0.3750 (   873 PWs)   bands (ev):

    37.4198  41.6705  41.6760  44.5469  50.4928  52.9265  52.9339  57.0458
    57.5676  60.7362

          k =-0.3750-0.1250-0.3750 (   873 PWs)   bands (ev):

    37.4198  41.6624  41.6841  44.5468  50.4931  52.9158  52.9447  57.0460
    57.5672  60.7331

          k = 0.3750-0.1250 0.3750 (   873 PWs)   bands (ev):

    37.4198  41.6625  41.6842  44.5468  50.4929  52.9157  52.9446  57.0462
    57.5673  60.7348

          k =-0.3750 0.1250 0.3750 (   873 PWs)   bands (ev):

    37.4198  41.6705  41.6761  44.5469  50.4930  52.9266  52.9340  57.0454
    57.5676  60.7361

          k = 0.3750-0.3750 0.1250 (   873 PWs)   bands (ev):

    37.4198  41.6634  41.6832  44.5469  50.4927  52.9168  52.9433  57.0460
    57.5674  60.7360

          k =-0.3750-0.3750-0.1250 (   873 PWs)   bands (ev):

    37.4198  41.6516  41.6950  44.5468  50.4931  52.9012  52.9590  57.0439
    57.5693  60.7300

          k = 0.3750 0.3750-0.1250 (   873 PWs)   bands (ev):

    37.4198  41.6516  41.6950  44.5469  50.4929  52.9012  52.9589  57.0461
    57.5673  60.7307

          k =-0.3750 0.3750 0.1250 (   873 PWs)   bands (ev):

    37.4198  41.6633  41.6832  44.5469  50.4930  52.9169  52.9434  57.0414
    57.5719  60.7354

          k =-0.3750-0.3750 0.3750 (   892 PWs)   bands (ev):

    39.8855  43.9823  44.0124  44.0422  47.7823  47.8151  47.8479  51.6494
    66.9725  66.9774

          k =-0.3750 0.3750-0.3750 (   892 PWs)   bands (ev):

    39.8855  43.9901  44.0123  44.0344  47.7909  47.8151  47.8394  51.6494
    66.9733  66.9752

          k = 0.3750-0.3750-0.3750 (   892 PWs)   bands (ev):

    39.8855  43.9860  44.0123  44.0385  47.7864  47.8152  47.8440  51.6493
    66.9736  66.9768

     the Fermi energy is    52.6605 ev

!    total energy              =    -141.24283947 Ry
     Harris-Foulkes estimate   =    -141.24284095 Ry
     estimated scf accuracy    <       0.00000090 Ry

     total all-electron energy =     -1925.813962 Ry

     The total energy is the sum of the following terms:

     one-electron contribution =      58.67263682 Ry
     hartree contribution      =       0.21192869 Ry
     xc contribution           =     -17.28504433 Ry
     ewald contribution        =     -40.85514762 Ry
     one-center paw contrib.   =    -141.98657458 Ry
     smearing contrib. (-TS)   =      -0.00063845 Ry

     convergence has been achieved in  10 iterations

     Forces acting on atoms (cartesian axes, Ry/au):

     atom    1 type  1   force =     0.00201630   -0.00039958    0.01639939
     atom    2 type  1   force =    -0.00326286    0.00367175    0.01636508
     atom    3 type  1   force =    -0.00057454   -0.00066269   -0.01726608
     atom    4 type  1   force =     0.00182110   -0.00260948   -0.01549839

     Total force =     0.033381     Total SCF correction =     0.000009


     Computing stress (Cartesian axis) and pressure

          total   stress  (Ry/bohr**3)                   (kbar)     P=59674.70
   0.40566597   0.00000105   0.00000104      59675.51      0.15      0.15
   0.00000105   0.40565449  -0.00000077          0.15  59673.83     -0.11
   0.00000104  -0.00000077   0.40566092          0.15     -0.11  59674.77


     Writing output data file fe_scf_fcc_2.save/

     init_run     :      1.22s CPU      1.25s WALL (       1 calls)
     electrons    :     10.71s CPU     10.81s WALL (       1 calls)
     forces       :      0.09s CPU      0.09s WALL (       1 calls)
     stress       :      0.27s CPU      0.27s WALL (       1 calls)

     Called by init_run:
     wfcinit      :      0.42s CPU      0.43s WALL (       1 calls)
     potinit      :      0.26s CPU      0.28s WALL (       1 calls)
     hinit0       :      0.52s CPU      0.52s WALL (       1 calls)

     Called by electrons:
     c_bands      :      6.80s CPU      6.86s WALL (      10 calls)
     sum_band     :      1.21s CPU      1.24s WALL (      10 calls)
     v_of_rho     :      0.14s CPU      0.15s WALL (      11 calls)
     newd         :      0.08s CPU      0.08s WALL (      11 calls)
     PAW_pot      :      2.71s CPU      2.74s WALL (      11 calls)
     mix_rho      :      0.02s CPU      0.02s WALL (      10 calls)

     Called by c_bands:
     init_us_2    :      0.24s CPU      0.23s WALL (     736 calls)
     cegterg      :      6.48s CPU      6.53s WALL (     320 calls)

     Called by sum_band:
     sum_band:bec :      0.00s CPU      0.00s WALL (     320 calls)
     addusdens    :      0.04s CPU      0.05s WALL (      10 calls)

     Called by *egterg:
     h_psi        :      5.67s CPU      5.81s WALL (    1043 calls)
     s_psi        :      0.24s CPU      0.21s WALL (    1043 calls)
     g_psi        :      0.04s CPU      0.03s WALL (     691 calls)
     cdiaghg      :      0.27s CPU      0.23s WALL (    1011 calls)

     Called by h_psi:
     h_psi:pot    :      5.62s CPU      5.78s WALL (    1043 calls)
     h_psi:calbec :      0.24s CPU      0.25s WALL (    1043 calls)
     vloc_psi     :      5.15s CPU      5.29s WALL (    1043 calls)
     add_vuspsi   :      0.24s CPU      0.23s WALL (    1043 calls)

     General routines
     calbec       :      0.36s CPU      0.37s WALL (    1523 calls)
     fft          :      0.10s CPU      0.10s WALL (     147 calls)
     ffts         :      0.02s CPU      0.01s WALL (      10 calls)
     fftw         :      5.58s CPU      5.80s WALL (   20760 calls)

     Parallel routines

     PWSCF        :    13.80s CPU        14.00s WALL


   This run was terminated on:   2:57:24  20Oct2019            

=------------------------------------------------------------------------------=
   JOB DONE.
=------------------------------------------------------------------------------=
