
     Program PWSCF v.6.3 starts on 22Oct2019 at 19: 1: 4 

     This program is part of the open-source Quantum ESPRESSO suite
     for quantum simulation of materials; please cite
         "P. Giannozzi et al., J. Phys.:Condens. Matter 21 395502 (2009);
         "P. Giannozzi et al., J. Phys.:Condens. Matter 29 465901 (2017);
          URL http://www.quantum-espresso.org", 
     in publications or presentations arising from this work. More details at
     http://www.quantum-espresso.org/quote

     Parallel version (MPI & OpenMP), running on      20 processor cores
     Number of MPI processes:                20
     Threads/MPI process:                     1

     MPI processes distributed on     1 nodes
     R & G space division:  proc/nbgrp/npool/nimage =      20
     Reading input from /rds/homes/b/bxp912/jobs/20191022_test/wd/runpwscf/file_10020.in
Warning: card &IONS ignored
Warning: card ION_DYNAMICS = 'BFGS', ignored
Warning: card / ignored
Warning: card &CELL ignored
Warning: card CELL_DYNAMICS = 'BFGS', ignored
Warning: card CELL_FACTOR = 2.0, ignored
Warning: card PRESS = 0.0, ignored
Warning: card / ignored

     Current dimensions of program PWSCF are:
     Max number of different atomic species (ntypx) = 10
     Max number of k-points (npk) =  40000
     Max angular momentum in pseudopotentials (lmaxx) =  3
     Message from routine read_upf::
     Pseudo file /rds/homes/b/bxp912/pp/Al.pbe-nl-kjpaw_psl.1.0.0.UPF has been successfully fixed on the fly.
To avoid this message in the future you can permanently fix 
 your pseudo files following instructions given in: 
https://gitlab.com/QEF/q-e/blob/master/upftools/how_to_fix_upf.md
               file Al.pbe-nl-kjpaw_psl.1.0.0.UPF: wavefunction(s)  3S 3P renormalized

     Subspace diagonalization in iterative solution of the eigenvalue problem:
     a serial algorithm will be used

 
     Parallelization info
     --------------------
     sticks:   dense  smooth     PW     G-vecs:    dense   smooth      PW
     Min          18      18      6                  271      271      52
     Max          20      20      8                  274      274      53
     Sum         373     373    129                 5449     5449    1045
 


     bravais-lattice index     =            0
     lattice parameter (alat)  =       4.0400  a.u.
     unit-cell volume          =      65.9393 (a.u.)^3
     number of atoms/cell      =            4
     number of atomic types    =            1
     number of electrons       =        12.00
     number of Kohn-Sham states=           10
     kinetic-energy cutoff     =      80.0000  Ry
     charge density cutoff     =     290.0000  Ry
     convergence threshold     =      1.0E-06
     mixing beta               =       0.1000
     number of iterations used =           10  TF        mixing
     Exchange-correlation      = SLA PW PBX PBC ( 1  4  3  4 0 0)

     celldm(1)=   4.040000  celldm(2)=   0.000000  celldm(3)=   0.000000
     celldm(4)=   0.000000  celldm(5)=   0.000000  celldm(6)=   0.000000

     crystal axes: (cart. coord. in units of alat)
               a(1) = (   1.000000   0.000000   0.000000 )  
               a(2) = (   0.000000   1.000000   0.000000 )  
               a(3) = (   0.000000   0.000000   1.000000 )  

     reciprocal axes: (cart. coord. in units 2 pi/alat)
               b(1) = (  1.000000  0.000000  0.000000 )  
               b(2) = (  0.000000  1.000000  0.000000 )  
               b(3) = (  0.000000  0.000000  1.000000 )  


     PseudoPot. # 1 for Al read from file:
     /rds/homes/b/bxp912/pp/Al.pbe-nl-kjpaw_psl.1.0.0.UPF
     MD5 check sum: 339dbea23cf3ab9a065ad45c0f9085d7
     Pseudo is Projector augmented-wave + core cor, Zval =  3.0
     Generated using "atomic" code by A. Dal Corso v.5.1
     Shape of augmentation charge: PSQ
     Using radial grid of 1135 points,  4 beta functions with: 
                l(1) =   0
                l(2) =   0
                l(3) =   1
                l(4) =   1
     Q(r) pseudized with 0 coefficients 


     atomic species   valence    mass     pseudopotential
        Al             3.00    26.98200     Al( 1.00)

     No symmetry found



   Cartesian axes

     site n.     atom                  positions (alat units)
         1           Al  tau(   1) = (  -0.0001235   0.0000359   0.0002572  )
         2           Al  tau(   2) = (   0.5003009   0.4992819   0.0002658  )
         3           Al  tau(   3) = (   0.4996490   0.0001153   0.5011170  )
         4           Al  tau(   4) = (  -0.0000756   0.5008267   0.5006943  )

     number of k points=    32  Marzari-Vanderbilt smearing, width (Ry)=  0.0200
                       cart. coord. in units 2pi/alat
        k(    1) = (   0.1250000   0.1250000   0.1250000), wk =   0.0625000
        k(    2) = (   0.1250000   0.1250000   0.3750000), wk =   0.0625000
        k(    3) = (   0.1250000   0.3750000   0.3750000), wk =   0.0625000
        k(    4) = (   0.3750000   0.3750000   0.3750000), wk =   0.0625000
        k(    5) = (  -0.1250000  -0.1250000   0.1250000), wk =   0.0625000
        k(    6) = (  -0.1250000   0.1250000  -0.1250000), wk =   0.0625000
        k(    7) = (   0.1250000  -0.1250000  -0.1250000), wk =   0.0625000
        k(    8) = (  -0.1250000  -0.1250000   0.3750000), wk =   0.0625000
        k(    9) = (  -0.1250000   0.1250000  -0.3750000), wk =   0.0625000
        k(   10) = (   0.1250000  -0.1250000  -0.3750000), wk =   0.0625000
        k(   11) = (   0.3750000  -0.1250000   0.1250000), wk =   0.0625000
        k(   12) = (  -0.3750000  -0.1250000  -0.1250000), wk =   0.0625000
        k(   13) = (   0.3750000   0.1250000  -0.1250000), wk =   0.0625000
        k(   14) = (  -0.3750000   0.1250000   0.1250000), wk =   0.0625000
        k(   15) = (  -0.1250000   0.3750000   0.1250000), wk =   0.0625000
        k(   16) = (  -0.1250000  -0.3750000  -0.1250000), wk =   0.0625000
        k(   17) = (   0.1250000   0.3750000  -0.1250000), wk =   0.0625000
        k(   18) = (   0.1250000  -0.3750000   0.1250000), wk =   0.0625000
        k(   19) = (  -0.1250000  -0.3750000   0.3750000), wk =   0.0625000
        k(   20) = (  -0.1250000   0.3750000  -0.3750000), wk =   0.0625000
        k(   21) = (   0.1250000  -0.3750000  -0.3750000), wk =   0.0625000
        k(   22) = (   0.3750000   0.1250000  -0.3750000), wk =   0.0625000
        k(   23) = (  -0.3750000  -0.1250000  -0.3750000), wk =   0.0625000
        k(   24) = (   0.3750000  -0.1250000   0.3750000), wk =   0.0625000
        k(   25) = (  -0.3750000   0.1250000   0.3750000), wk =   0.0625000
        k(   26) = (   0.3750000  -0.3750000   0.1250000), wk =   0.0625000
        k(   27) = (  -0.3750000  -0.3750000  -0.1250000), wk =   0.0625000
        k(   28) = (   0.3750000   0.3750000  -0.1250000), wk =   0.0625000
        k(   29) = (  -0.3750000   0.3750000   0.1250000), wk =   0.0625000
        k(   30) = (  -0.3750000  -0.3750000   0.3750000), wk =   0.0625000
        k(   31) = (  -0.3750000   0.3750000  -0.3750000), wk =   0.0625000
        k(   32) = (   0.3750000  -0.3750000  -0.3750000), wk =   0.0625000

     Dense  grid:     5449 G-vectors     FFT dimensions: (  24,  24,  24)

     Estimated max dynamical RAM per process >       0.90 MB

     Estimated total dynamical RAM >      18.02 MB

     Initial potential from superposition of free atoms

     starting charge   11.99084, renormalised to   12.00000
     Starting wfcs are   16 randomized atomic wfcs
     Checking if some PAW data can be deallocated... 

     total cpu time spent up to now is        0.7 secs

     Self-consistent Calculation

     iteration #  1     ecut=    80.00 Ry     beta= 0.10
     Davidson diagonalization with overlap
     ethr =  1.00E-02,  avg # of iterations =  4.9

     total cpu time spent up to now is        1.0 secs

     total energy              =    -141.65274409 Ry
     Harris-Foulkes estimate   =    -141.80701261 Ry
     estimated scf accuracy    <       0.18108015 Ry

     iteration #  2     ecut=    80.00 Ry     beta= 0.10
     Davidson diagonalization with overlap
     ethr =  1.51E-03,  avg # of iterations =  1.0

     total cpu time spent up to now is        1.1 secs

     total energy              =    -141.16274419 Ry
     Harris-Foulkes estimate   =    -141.65531646 Ry
     estimated scf accuracy    <       0.15201942 Ry

     iteration #  3     ecut=    80.00 Ry     beta= 0.10
     Davidson diagonalization with overlap
     ethr =  1.27E-03,  avg # of iterations =  2.0

     total cpu time spent up to now is        1.2 secs

     total energy              =    -141.24412650 Ry
     Harris-Foulkes estimate   =    -141.25645634 Ry
     estimated scf accuracy    <       0.01571089 Ry

     iteration #  4     ecut=    80.00 Ry     beta= 0.10
     Davidson diagonalization with overlap
     ethr =  1.31E-04,  avg # of iterations =  1.0

     total cpu time spent up to now is        1.3 secs

     total energy              =    -141.24154476 Ry
     Harris-Foulkes estimate   =    -141.24455254 Ry
     estimated scf accuracy    <       0.01254078 Ry

     iteration #  5     ecut=    80.00 Ry     beta= 0.10
     Davidson diagonalization with overlap
     ethr =  1.05E-04,  avg # of iterations =  1.0

     total cpu time spent up to now is        1.4 secs

     total energy              =    -141.24351777 Ry
     Harris-Foulkes estimate   =    -141.24261166 Ry
     estimated scf accuracy    <       0.00080292 Ry

     iteration #  6     ecut=    80.00 Ry     beta= 0.10
     Davidson diagonalization with overlap
     ethr =  6.69E-06,  avg # of iterations =  2.8

     total cpu time spent up to now is        1.6 secs

     total energy              =    -141.24377241 Ry
     Harris-Foulkes estimate   =    -141.24379956 Ry
     estimated scf accuracy    <       0.00009581 Ry

     iteration #  7     ecut=    80.00 Ry     beta= 0.10
     Davidson diagonalization with overlap
     ethr =  7.98E-07,  avg # of iterations =  1.3

     total cpu time spent up to now is        1.7 secs

     total energy              =    -141.24280460 Ry
     Harris-Foulkes estimate   =    -141.24377399 Ry
     estimated scf accuracy    <       0.00007442 Ry

     iteration #  8     ecut=    80.00 Ry     beta= 0.10
     Davidson diagonalization with overlap
     ethr =  6.20E-07,  avg # of iterations =  2.8

     total cpu time spent up to now is        1.8 secs

     total energy              =    -141.24290289 Ry
     Harris-Foulkes estimate   =    -141.24287127 Ry
     estimated scf accuracy    <       0.00000728 Ry

     iteration #  9     ecut=    80.00 Ry     beta= 0.10
     Davidson diagonalization with overlap
     ethr =  6.06E-08,  avg # of iterations =  2.0

     total cpu time spent up to now is        2.0 secs

     total energy              =    -141.24280711 Ry
     Harris-Foulkes estimate   =    -141.24290367 Ry
     estimated scf accuracy    <       0.00000789 Ry

     iteration # 10     ecut=    80.00 Ry     beta= 0.10
     Davidson diagonalization with overlap
     ethr =  6.06E-08,  avg # of iterations =  3.0

     total cpu time spent up to now is        2.1 secs

     total energy              =    -141.24281694 Ry
     Harris-Foulkes estimate   =    -141.24281706 Ry
     estimated scf accuracy    <       0.00000112 Ry

     iteration # 11     ecut=    80.00 Ry     beta= 0.10
     Davidson diagonalization with overlap
     ethr =  9.32E-09,  avg # of iterations =  1.0

     total cpu time spent up to now is        2.2 secs

     total energy              =    -141.24281713 Ry
     Harris-Foulkes estimate   =    -141.24281696 Ry
     estimated scf accuracy    <       0.00000113 Ry

     iteration # 12     ecut=    80.00 Ry     beta= 0.10
     Davidson diagonalization with overlap
     ethr =  9.32E-09,  avg # of iterations =  1.0

     total cpu time spent up to now is        2.3 secs

     End of self-consistent calculation

          k = 0.1250 0.1250 0.1250 (   793 PWs)   bands (ev):

    30.9167  41.4382  41.4572  41.4760  52.4293  52.4496  52.4697  54.9337
    54.9436  54.9536

          k = 0.1250 0.1250 0.3750 (   798 PWs)   bands (ev):

    34.4095  39.0156  43.9438  43.9626  51.8129  51.8301  54.8791  54.8878
    55.6926  61.5178

          k = 0.1250 0.3750 0.3750 (   802 PWs)   bands (ev):

    37.4246  41.6593  41.6962  44.5512  50.4951  52.9076  52.9567  57.0473
    57.5692  60.7350

          k = 0.3750 0.3750 0.3750 (   795 PWs)   bands (ev):

    39.8900  43.9786  44.0166  44.0543  47.7764  47.8179  47.8594  51.6518
    66.9754  66.9773

          k =-0.1250-0.1250 0.1250 (   793 PWs)   bands (ev):

    30.9167  41.4421  41.4572  41.4720  52.4336  52.4495  52.4655  54.9358
    54.9436  54.9515

          k =-0.1250 0.1250-0.1250 (   793 PWs)   bands (ev):

    30.9167  41.4460  41.4572  41.4681  52.4377  52.4496  52.4613  54.9379
    54.9436  54.9495

          k = 0.1250-0.1250-0.1250 (   793 PWs)   bands (ev):

    30.9167  41.4440  41.4572  41.4702  52.4355  52.4496  52.4635  54.9367
    54.9436  54.9505

          k =-0.1250-0.1250 0.3750 (   798 PWs)   bands (ev):

    34.4095  39.0156  43.9438  43.9626  51.8129  51.8302  54.8792  54.8878
    55.6923  61.5177

          k =-0.1250 0.1250-0.3750 (   798 PWs)   bands (ev):

    34.4095  39.0156  43.9489  43.9575  51.8175  51.8254  54.8815  54.8855
    55.6924  61.5177

          k = 0.1250-0.1250-0.3750 (   798 PWs)   bands (ev):

    34.4095  39.0156  43.9489  43.9575  51.8175  51.8254  54.8815  54.8854
    55.6926  61.5173

          k = 0.3750-0.1250 0.1250 (   798 PWs)   bands (ev):

    34.4095  39.0155  43.9489  43.9576  51.8173  51.8253  54.8816  54.8857
    55.6926  61.5175

          k =-0.3750-0.1250-0.1250 (   798 PWs)   bands (ev):

    34.4095  39.0154  43.9452  43.9613  51.8142  51.8289  54.8794  54.8868
    55.6932  61.5177

          k = 0.3750 0.1250-0.1250 (   798 PWs)   bands (ev):

    34.4095  39.0154  43.9489  43.9576  51.8173  51.8253  54.8816  54.8857
    55.6926  61.5177

          k =-0.3750 0.1250 0.1250 (   798 PWs)   bands (ev):

    34.4095  39.0155  43.9452  43.9612  51.8143  51.8290  54.8795  54.8869
    55.6928  61.5178

          k =-0.1250 0.3750 0.1250 (   798 PWs)   bands (ev):

    34.4095  39.0154  43.9522  43.9546  51.8204  51.8226  54.8828  54.8839
    55.6925  61.5177

          k =-0.1250-0.3750-0.1250 (   798 PWs)   bands (ev):

    34.4095  39.0154  43.9487  43.9581  51.8171  51.8257  54.8813  54.8856
    55.6926  61.5178

          k = 0.1250 0.3750-0.1250 (   798 PWs)   bands (ev):

    34.4095  39.0154  43.9522  43.9546  51.8204  51.8226  54.8827  54.8839
    55.6928  61.5176

          k = 0.1250-0.3750 0.1250 (   798 PWs)   bands (ev):

    34.4095  39.0154  43.9487  43.9581  51.8171  51.8258  54.8813  54.8856
    55.6924  61.5178

          k =-0.1250-0.3750 0.3750 (   802 PWs)   bands (ev):

    37.4246  41.6677  41.6879  44.5511  50.4953  52.9187  52.9455  57.0467
    57.5701  60.7359

          k =-0.1250 0.3750-0.3750 (   802 PWs)   bands (ev):

    37.4246  41.6677  41.6879  44.5511  50.4953  52.9186  52.9454  57.0463
    57.5706  60.7376

          k = 0.1250-0.3750-0.3750 (   802 PWs)   bands (ev):

    37.4246  41.6593  41.6962  44.5512  50.4952  52.9076  52.9567  57.0469
    57.5695  60.7323

          k = 0.3750 0.1250-0.3750 (   802 PWs)   bands (ev):

    37.4246  41.6749  41.6805  44.5511  50.4951  52.9285  52.9359  57.0473
    57.5694  60.7377

          k =-0.3750-0.1250-0.3750 (   802 PWs)   bands (ev):

    37.4246  41.6669  41.6886  44.5510  50.4954  52.9178  52.9467  57.0475
    57.5690  60.7343

          k = 0.3750-0.1250 0.3750 (   802 PWs)   bands (ev):

    37.4246  41.6669  41.6886  44.5510  50.4952  52.9177  52.9466  57.0477
    57.5692  60.7372

          k =-0.3750 0.1250 0.3750 (   802 PWs)   bands (ev):

    37.4246  41.6749  41.6805  44.5511  50.4953  52.9286  52.9360  57.0470
    57.5694  60.7380

          k = 0.3750-0.3750 0.1250 (   802 PWs)   bands (ev):

    37.4247  41.6678  41.6877  44.5511  50.4950  52.9189  52.9453  57.0476
    57.5692  60.7391

          k =-0.3750-0.3750-0.1250 (   802 PWs)   bands (ev):

    37.4247  41.6561  41.6994  44.5510  50.4953  52.9032  52.9610  57.0455
    57.5712  60.7325

          k = 0.3750 0.3750-0.1250 (   802 PWs)   bands (ev):

    37.4247  41.6561  41.6994  44.5511  50.4952  52.9032  52.9609  57.0476
    57.5691  60.7313

          k =-0.3750 0.3750 0.1250 (   802 PWs)   bands (ev):

    37.4247  41.6678  41.6876  44.5511  50.4953  52.9190  52.9454  57.0429
    57.5737  60.7365

          k =-0.3750-0.3750 0.3750 (   795 PWs)   bands (ev):

    39.8899  43.9865  44.0166  44.0463  47.7852  47.8179  47.8507  51.6519
    66.9746  66.9763

          k =-0.3750 0.3750-0.3750 (   795 PWs)   bands (ev):

    39.8899  43.9943  44.0165  44.0386  47.7937  47.8179  47.8422  51.6519
    66.9742  66.9776

          k = 0.3750-0.3750-0.3750 (   795 PWs)   bands (ev):

    39.8899  43.9902  44.0165  44.0427  47.7892  47.8180  47.8468  51.6518
    66.9738  66.9782

     the Fermi energy is    52.6615 ev

!    total energy              =    -141.24281672 Ry
     Harris-Foulkes estimate   =    -141.24281717 Ry
     estimated scf accuracy    <       0.00000040 Ry

     total all-electron energy =     -1925.813944 Ry

     The total energy is the sum of the following terms:

     one-electron contribution =      58.67251452 Ry
     hartree contribution      =       0.21191840 Ry
     xc contribution           =     -17.28518372 Ry
     ewald contribution        =     -40.85514762 Ry
     one-center paw contrib.   =    -141.98630349 Ry
     smearing contrib. (-TS)   =      -0.00061481 Ry

     convergence has been achieved in  12 iterations

     Forces acting on atoms (cartesian axes, Ry/au):

     atom    1 type  1   force =     0.00200601   -0.00039285    0.01643389
     atom    2 type  1   force =    -0.00324726    0.00372353    0.01640306
     atom    3 type  1   force =    -0.00055640   -0.00069068   -0.01730122
     atom    4 type  1   force =     0.00179765   -0.00264000   -0.01553573

     Total force =     0.033457     Total SCF correction =     0.000005


     Computing stress (Cartesian axis) and pressure

          total   stress  (Ry/bohr**3)                   (kbar)     P=59672.78
   0.40565279   0.00000114   0.00000096      59673.58      0.17      0.14
   0.00000114   0.40564148  -0.00000110          0.17  59671.91     -0.16
   0.00000096  -0.00000110   0.40564792          0.14     -0.16  59672.86


     Writing output data file fe_scf_fcc_2.save/
 
     init_run     :      0.12s CPU      0.15s WALL (       1 calls)
     electrons    :      1.52s CPU      1.66s WALL (       1 calls)
     forces       :      0.01s CPU      0.01s WALL (       1 calls)
     stress       :      0.01s CPU      0.02s WALL (       1 calls)

     Called by init_run:
     wfcinit      :      0.06s CPU      0.07s WALL (       1 calls)
     potinit      :      0.01s CPU      0.02s WALL (       1 calls)
     hinit0       :      0.03s CPU      0.05s WALL (       1 calls)

     Called by electrons:
     c_bands      :      1.15s CPU      1.26s WALL (      12 calls)
     sum_band     :      0.20s CPU      0.21s WALL (      12 calls)
     v_of_rho     :      0.01s CPU      0.01s WALL (      13 calls)
     newd         :      0.00s CPU      0.00s WALL (      13 calls)
     PAW_pot      :      0.15s CPU      0.17s WALL (      13 calls)
     mix_rho      :      0.01s CPU      0.01s WALL (      12 calls)

     Called by c_bands:
     init_us_2    :      0.01s CPU      0.01s WALL (     864 calls)
     cegterg      :      1.11s CPU      1.22s WALL (     384 calls)

     Called by sum_band:
     sum_band:bec :      0.00s CPU      0.00s WALL (     384 calls)
     addusdens    :      0.00s CPU      0.00s WALL (      12 calls)

     Called by *egterg:
     h_psi        :      0.83s CPU      0.91s WALL (    1175 calls)
     s_psi        :      0.01s CPU      0.01s WALL (    1175 calls)
     g_psi        :      0.00s CPU      0.00s WALL (     759 calls)
     cdiaghg      :      0.19s CPU      0.21s WALL (    1143 calls)

     Called by h_psi:
     h_psi:pot    :      0.83s CPU      0.91s WALL (    1175 calls)
     h_psi:calbec :      0.07s CPU      0.07s WALL (    1175 calls)
     vloc_psi     :      0.75s CPU      0.81s WALL (    1175 calls)
     add_vuspsi   :      0.01s CPU      0.01s WALL (    1175 calls)

     General routines
     calbec       :      0.10s CPU      0.11s WALL (    1719 calls)
     fft          :      0.03s CPU      0.05s WALL (     169 calls)
     ffts         :      0.00s CPU      0.00s WALL (      12 calls)
     fftw         :      0.85s CPU      0.92s WALL (   23864 calls)
 
     Parallel routines
     fft_scatt_xy :      0.06s CPU      0.07s WALL (   24045 calls)
     fft_scatt_yz :      0.61s CPU      0.67s WALL (   24045 calls)
 
     PWSCF        :     2.20s CPU         2.67s WALL

 
   This run was terminated on:  19: 1: 6  22Oct2019            

=------------------------------------------------------------------------------=
   JOB DONE.
=------------------------------------------------------------------------------=
