
     Program PWSCF v.6.3 starts on 22Oct2019 at 19: 7:42 

     This program is part of the open-source Quantum ESPRESSO suite
     for quantum simulation of materials; please cite
         "P. Giannozzi et al., J. Phys.:Condens. Matter 21 395502 (2009);
         "P. Giannozzi et al., J. Phys.:Condens. Matter 29 465901 (2017);
          URL http://www.quantum-espresso.org", 
     in publications or presentations arising from this work. More details at
     http://www.quantum-espresso.org/quote

     Parallel version (MPI & OpenMP), running on      20 processor cores
     Number of MPI processes:                20
     Threads/MPI process:                     1

     MPI processes distributed on     1 nodes
     R & G space division:  proc/nbgrp/npool/nimage =      20
     Reading input from /rds/homes/b/bxp912/jobs/20191022_test/wd/runpwscf/file_10167.in
Warning: card &IONS ignored
Warning: card ION_DYNAMICS = 'BFGS', ignored
Warning: card / ignored
Warning: card &CELL ignored
Warning: card CELL_DYNAMICS = 'BFGS', ignored
Warning: card CELL_FACTOR = 2.0, ignored
Warning: card PRESS = 0.0, ignored
Warning: card / ignored

     Current dimensions of program PWSCF are:
     Max number of different atomic species (ntypx) = 10
     Max number of k-points (npk) =  40000
     Max angular momentum in pseudopotentials (lmaxx) =  3
     Message from routine read_upf::
     Pseudo file /rds/homes/b/bxp912/pp/Al.pbe-nl-kjpaw_psl.1.0.0.UPF has been successfully fixed on the fly.
To avoid this message in the future you can permanently fix 
 your pseudo files following instructions given in: 
https://gitlab.com/QEF/q-e/blob/master/upftools/how_to_fix_upf.md
               file Al.pbe-nl-kjpaw_psl.1.0.0.UPF: wavefunction(s)  3S 3P renormalized

     Subspace diagonalization in iterative solution of the eigenvalue problem:
     a serial algorithm will be used

 
     Parallelization info
     --------------------
     sticks:   dense  smooth     PW     G-vecs:    dense   smooth      PW
     Min          15       6      2                  205       56      12
     Max          16       7      3                  208       59      15
     Sum         305     137     45                 4139     1141     251
 


     bravais-lattice index     =            0
     lattice parameter (alat)  =       4.0400  a.u.
     unit-cell volume          =      65.9393 (a.u.)^3
     number of atoms/cell      =            4
     number of atomic types    =            1
     number of electrons       =        12.00
     number of Kohn-Sham states=           10
     kinetic-energy cutoff     =      25.0000  Ry
     charge density cutoff     =     240.0000  Ry
     convergence threshold     =      1.0E-06
     mixing beta               =       0.1000
     number of iterations used =           10  TF        mixing
     Exchange-correlation      = SLA PW PBX PBC ( 1  4  3  4 0 0)

     celldm(1)=   4.040000  celldm(2)=   0.000000  celldm(3)=   0.000000
     celldm(4)=   0.000000  celldm(5)=   0.000000  celldm(6)=   0.000000

     crystal axes: (cart. coord. in units of alat)
               a(1) = (   1.000000   0.000000   0.000000 )  
               a(2) = (   0.000000   1.000000   0.000000 )  
               a(3) = (   0.000000   0.000000   1.000000 )  

     reciprocal axes: (cart. coord. in units 2 pi/alat)
               b(1) = (  1.000000  0.000000  0.000000 )  
               b(2) = (  0.000000  1.000000  0.000000 )  
               b(3) = (  0.000000  0.000000  1.000000 )  


     PseudoPot. # 1 for Al read from file:
     /rds/homes/b/bxp912/pp/Al.pbe-nl-kjpaw_psl.1.0.0.UPF
     MD5 check sum: 339dbea23cf3ab9a065ad45c0f9085d7
     Pseudo is Projector augmented-wave + core cor, Zval =  3.0
     Generated using "atomic" code by A. Dal Corso v.5.1
     Shape of augmentation charge: PSQ
     Using radial grid of 1135 points,  4 beta functions with: 
                l(1) =   0
                l(2) =   0
                l(3) =   1
                l(4) =   1
     Q(r) pseudized with 0 coefficients 


     atomic species   valence    mass     pseudopotential
        Al             3.00    26.98200     Al( 1.00)

     No symmetry found



   Cartesian axes

     site n.     atom                  positions (alat units)
         1           Al  tau(   1) = (  -0.0001235   0.0000359   0.0002572  )
         2           Al  tau(   2) = (   0.5003009   0.4992819   0.0002658  )
         3           Al  tau(   3) = (   0.4996490   0.0001153   0.5011170  )
         4           Al  tau(   4) = (  -0.0000756   0.5008267   0.5006943  )

     number of k points=    32  Marzari-Vanderbilt smearing, width (Ry)=  0.0200
                       cart. coord. in units 2pi/alat
        k(    1) = (   0.1250000   0.1250000   0.1250000), wk =   0.0625000
        k(    2) = (   0.1250000   0.1250000   0.3750000), wk =   0.0625000
        k(    3) = (   0.1250000   0.3750000   0.3750000), wk =   0.0625000
        k(    4) = (   0.3750000   0.3750000   0.3750000), wk =   0.0625000
        k(    5) = (  -0.1250000  -0.1250000   0.1250000), wk =   0.0625000
        k(    6) = (  -0.1250000   0.1250000  -0.1250000), wk =   0.0625000
        k(    7) = (   0.1250000  -0.1250000  -0.1250000), wk =   0.0625000
        k(    8) = (  -0.1250000  -0.1250000   0.3750000), wk =   0.0625000
        k(    9) = (  -0.1250000   0.1250000  -0.3750000), wk =   0.0625000
        k(   10) = (   0.1250000  -0.1250000  -0.3750000), wk =   0.0625000
        k(   11) = (   0.3750000  -0.1250000   0.1250000), wk =   0.0625000
        k(   12) = (  -0.3750000  -0.1250000  -0.1250000), wk =   0.0625000
        k(   13) = (   0.3750000   0.1250000  -0.1250000), wk =   0.0625000
        k(   14) = (  -0.3750000   0.1250000   0.1250000), wk =   0.0625000
        k(   15) = (  -0.1250000   0.3750000   0.1250000), wk =   0.0625000
        k(   16) = (  -0.1250000  -0.3750000  -0.1250000), wk =   0.0625000
        k(   17) = (   0.1250000   0.3750000  -0.1250000), wk =   0.0625000
        k(   18) = (   0.1250000  -0.3750000   0.1250000), wk =   0.0625000
        k(   19) = (  -0.1250000  -0.3750000   0.3750000), wk =   0.0625000
        k(   20) = (  -0.1250000   0.3750000  -0.3750000), wk =   0.0625000
        k(   21) = (   0.1250000  -0.3750000  -0.3750000), wk =   0.0625000
        k(   22) = (   0.3750000   0.1250000  -0.3750000), wk =   0.0625000
        k(   23) = (  -0.3750000  -0.1250000  -0.3750000), wk =   0.0625000
        k(   24) = (   0.3750000  -0.1250000   0.3750000), wk =   0.0625000
        k(   25) = (  -0.3750000   0.1250000   0.3750000), wk =   0.0625000
        k(   26) = (   0.3750000  -0.3750000   0.1250000), wk =   0.0625000
        k(   27) = (  -0.3750000  -0.3750000  -0.1250000), wk =   0.0625000
        k(   28) = (   0.3750000   0.3750000  -0.1250000), wk =   0.0625000
        k(   29) = (  -0.3750000   0.3750000   0.1250000), wk =   0.0625000
        k(   30) = (  -0.3750000  -0.3750000   0.3750000), wk =   0.0625000
        k(   31) = (  -0.3750000   0.3750000  -0.3750000), wk =   0.0625000
        k(   32) = (   0.3750000  -0.3750000  -0.3750000), wk =   0.0625000

     Dense  grid:     4139 G-vectors     FFT dimensions: (  20,  20,  20)

     Smooth grid:     1141 G-vectors     FFT dimensions: (  15,  15,  15)

     Estimated max dynamical RAM per process >       0.56 MB

     Estimated total dynamical RAM >      11.21 MB

     Initial potential from superposition of free atoms

     starting charge   11.99084, renormalised to   12.00000
     Starting wfcs are   16 randomized atomic wfcs
     Checking if some PAW data can be deallocated... 

     total cpu time spent up to now is        0.7 secs

     Self-consistent Calculation

     iteration #  1     ecut=    25.00 Ry     beta= 0.10
     Davidson diagonalization with overlap
     ethr =  1.00E-02,  avg # of iterations =  4.9

     total cpu time spent up to now is        0.9 secs

     total energy              =    -141.59669718 Ry
     Harris-Foulkes estimate   =    -141.75237507 Ry
     estimated scf accuracy    <       0.18308406 Ry

     iteration #  2     ecut=    25.00 Ry     beta= 0.10
     Davidson diagonalization with overlap
     ethr =  1.53E-03,  avg # of iterations =  1.0

     total cpu time spent up to now is        1.0 secs

     total energy              =    -141.10372320 Ry
     Harris-Foulkes estimate   =    -141.60023704 Ry
     estimated scf accuracy    <       0.15409586 Ry

     iteration #  3     ecut=    25.00 Ry     beta= 0.10
     Davidson diagonalization with overlap
     ethr =  1.28E-03,  avg # of iterations =  2.0

     total cpu time spent up to now is        1.2 secs

     total energy              =    -141.18540046 Ry
     Harris-Foulkes estimate   =    -141.20082146 Ry
     estimated scf accuracy    <       0.01625741 Ry

     iteration #  4     ecut=    25.00 Ry     beta= 0.10
     Davidson diagonalization with overlap
     ethr =  1.35E-04,  avg # of iterations =  1.0

     total cpu time spent up to now is        1.3 secs

     total energy              =    -141.18489587 Ry
     Harris-Foulkes estimate   =    -141.18591628 Ry
     estimated scf accuracy    <       0.01267613 Ry

     iteration #  5     ecut=    25.00 Ry     beta= 0.10
     Davidson diagonalization with overlap
     ethr =  1.06E-04,  avg # of iterations =  1.0

     total cpu time spent up to now is        1.4 secs

     total energy              =    -141.18737191 Ry
     Harris-Foulkes estimate   =    -141.18608883 Ry
     estimated scf accuracy    <       0.00048648 Ry

     iteration #  6     ecut=    25.00 Ry     beta= 0.10
     Davidson diagonalization with overlap
     ethr =  4.05E-06,  avg # of iterations =  2.8

     total cpu time spent up to now is        1.5 secs

     total energy              =    -141.18731160 Ry
     Harris-Foulkes estimate   =    -141.18758067 Ry
     estimated scf accuracy    <       0.00005836 Ry

     iteration #  7     ecut=    25.00 Ry     beta= 0.10
     Davidson diagonalization with overlap
     ethr =  4.86E-07,  avg # of iterations =  1.2

     total cpu time spent up to now is        1.6 secs

     total energy              =    -141.18610341 Ry
     Harris-Foulkes estimate   =    -141.18731302 Ry
     estimated scf accuracy    <       0.00004802 Ry

     iteration #  8     ecut=    25.00 Ry     beta= 0.10
     Davidson diagonalization with overlap
     ethr =  4.00E-07,  avg # of iterations =  3.0

     total cpu time spent up to now is        1.8 secs

     total energy              =    -141.18616342 Ry
     Harris-Foulkes estimate   =    -141.18618056 Ry
     estimated scf accuracy    <       0.00000599 Ry

     iteration #  9     ecut=    25.00 Ry     beta= 0.10
     Davidson diagonalization with overlap
     ethr =  4.99E-08,  avg # of iterations =  1.0

     total cpu time spent up to now is        1.9 secs

     total energy              =    -141.18611729 Ry
     Harris-Foulkes estimate   =    -141.18616361 Ry
     estimated scf accuracy    <       0.00000729 Ry

     iteration # 10     ecut=    25.00 Ry     beta= 0.10
     Davidson diagonalization with overlap
     ethr =  4.99E-08,  avg # of iterations =  2.8

     total cpu time spent up to now is        2.0 secs

     End of self-consistent calculation

          k = 0.1250 0.1250 0.1250 (   144 PWs)   bands (ev):

    30.9325  41.5201  41.5388  41.5570  52.5645  52.5850  52.6051  54.9736
    54.9839  54.9942

          k = 0.1250 0.1250 0.3750 (   138 PWs)   bands (ev):

    34.4231  39.0640  43.9992  44.0178  51.9438  51.9614  54.9737  54.9822
    55.8702  61.7713

          k = 0.1250 0.3750 0.3750 (   141 PWs)   bands (ev):

    37.4460  41.6921  41.7290  44.5880  50.5878  53.0484  53.0986  57.1535
    57.6917  60.8845

          k = 0.3750 0.3750 0.3750 (   145 PWs)   bands (ev):

    39.9366  44.0148  44.0526  44.0900  47.8484  47.8900  47.9315  51.7788
    67.2030  67.2078

          k =-0.1250-0.1250 0.1250 (   144 PWs)   bands (ev):

    30.9325  41.5240  41.5387  41.5532  52.5688  52.5848  52.6009  54.9758
    54.9839  54.9921

          k =-0.1250 0.1250-0.1250 (   144 PWs)   bands (ev):

    30.9325  41.5278  41.5387  41.5494  52.5729  52.5849  52.5967  54.9779
    54.9839  54.9900

          k = 0.1250-0.1250-0.1250 (   144 PWs)   bands (ev):

    30.9325  41.5258  41.5387  41.5514  52.5708  52.5849  52.5990  54.9768
    54.9839  54.9911

          k =-0.1250-0.1250 0.3750 (   138 PWs)   bands (ev):

    34.4231  39.0641  43.9991  44.0178  51.9439  51.9615  54.9737  54.9823
    55.8699  61.7715

          k =-0.1250 0.1250-0.3750 (   138 PWs)   bands (ev):

    34.4230  39.0641  44.0042  44.0128  51.9486  51.9566  54.9760  54.9800
    55.8700  61.7714

          k = 0.1250-0.1250-0.3750 (   138 PWs)   bands (ev):

    34.4231  39.0640  44.0042  44.0128  51.9486  51.9566  54.9760  54.9800
    55.8702  61.7709

          k = 0.3750-0.1250 0.1250 (   138 PWs)   bands (ev):

    34.4231  39.0640  44.0042  44.0129  51.9484  51.9565  54.9762  54.9801
    55.8702  61.7713

          k =-0.3750-0.1250-0.1250 (   138 PWs)   bands (ev):

    34.4231  39.0639  44.0006  44.0165  51.9452  51.9602  54.9740  54.9813
    55.8708  61.7716

          k = 0.3750 0.1250-0.1250 (   138 PWs)   bands (ev):

    34.4231  39.0639  44.0042  44.0129  51.9484  51.9565  54.9762  54.9801
    55.8702  61.7718

          k =-0.3750 0.1250 0.1250 (   138 PWs)   bands (ev):

    34.4231  39.0640  44.0005  44.0164  51.9453  51.9602  54.9741  54.9813
    55.8704  61.7714

          k =-0.1250 0.3750 0.1250 (   138 PWs)   bands (ev):

    34.4231  39.0639  44.0075  44.0099  51.9515  51.9538  54.9773  54.9784
    55.8701  61.7715

          k =-0.1250-0.3750-0.1250 (   138 PWs)   bands (ev):

    34.4231  39.0639  44.0040  44.0134  51.9482  51.9569  54.9759  54.9801
    55.8702  61.7715

          k = 0.1250 0.3750-0.1250 (   138 PWs)   bands (ev):

    34.4231  39.0639  44.0075  44.0099  51.9515  51.9537  54.9772  54.9784
    55.8704  61.7714

          k = 0.1250-0.3750 0.1250 (   138 PWs)   bands (ev):

    34.4231  39.0639  44.0040  44.0133  51.9482  51.9570  54.9758  54.9801
    55.8701  61.7715

          k =-0.1250-0.3750 0.3750 (   141 PWs)   bands (ev):

    37.4459  41.7006  41.7207  44.5878  50.5880  53.0597  53.0871  57.1528
    57.6926  60.8856

          k =-0.1250 0.3750-0.3750 (   141 PWs)   bands (ev):

    37.4459  41.7006  41.7207  44.5878  50.5879  53.0597  53.0871  57.1525
    57.6931  60.8843

          k = 0.1250-0.3750-0.3750 (   141 PWs)   bands (ev):

    37.4459  41.6921  41.7290  44.5880  50.5878  53.0484  53.0986  57.1531
    57.6919  60.8821

          k = 0.3750 0.1250-0.3750 (   141 PWs)   bands (ev):

    37.4459  41.7078  41.7133  44.5879  50.5878  53.0698  53.0774  57.1535
    57.6919  60.8852

          k =-0.3750-0.1250-0.3750 (   141 PWs)   bands (ev):

    37.4459  41.6997  41.7214  44.5877  50.5881  53.0589  53.0883  57.1537
    57.6915  60.8826

          k = 0.3750-0.1250 0.3750 (   141 PWs)   bands (ev):

    37.4459  41.6998  41.7214  44.5878  50.5879  53.0588  53.0882  57.1539
    57.6916  60.8828

          k =-0.3750 0.1250 0.3750 (   141 PWs)   bands (ev):

    37.4459  41.7078  41.7133  44.5879  50.5879  53.0698  53.0774  57.1532
    57.6919  60.8858

          k = 0.3750-0.3750 0.1250 (   141 PWs)   bands (ev):

    37.4460  41.7007  41.7205  44.5879  50.5876  53.0599  53.0870  57.1537
    57.6917  60.8848

          k =-0.3750-0.3750-0.1250 (   141 PWs)   bands (ev):

    37.4460  41.6890  41.7322  44.5878  50.5880  53.0439  53.1030  57.1517
    57.6936  60.8824

          k = 0.3750 0.3750-0.1250 (   141 PWs)   bands (ev):

    37.4460  41.6890  41.7322  44.5878  50.5878  53.0438  53.1029  57.1538
    57.6916  60.8799

          k =-0.3750 0.3750 0.1250 (   141 PWs)   bands (ev):

    37.4460  41.7007  41.7204  44.5879  50.5880  53.0600  53.0871  57.1491
    57.6962  60.8848

          k =-0.3750-0.3750 0.3750 (   145 PWs)   bands (ev):

    39.9366  44.0227  44.0526  44.0821  47.8571  47.8899  47.9228  51.7790
    67.2054  67.2087

          k =-0.3750 0.3750-0.3750 (   145 PWs)   bands (ev):

    39.9365  44.0304  44.0525  44.0744  47.8656  47.8899  47.9143  51.7790
    67.2054  67.2075

          k = 0.3750-0.3750-0.3750 (   145 PWs)   bands (ev):

    39.9365  44.0263  44.0525  44.0785  47.8612  47.8900  47.9189  51.7789
    67.2052  67.2077

     the Fermi energy is    52.7987 ev

!    total energy              =    -141.18612176 Ry
     Harris-Foulkes estimate   =    -141.18612333 Ry
     estimated scf accuracy    <       0.00000097 Ry

     total all-electron energy =     -1925.757250 Ry

     The total energy is the sum of the following terms:

     one-electron contribution =      58.74538318 Ry
     hartree contribution      =       0.21427628 Ry
     xc contribution           =     -17.28858533 Ry
     ewald contribution        =     -40.85514763 Ry
     one-center paw contrib.   =    -142.00151082 Ry
     smearing contrib. (-TS)   =      -0.00053745 Ry

     convergence has been achieved in  10 iterations

     Forces acting on atoms (cartesian axes, Ry/au):

     atom    1 type  1   force =     0.00205089   -0.00043513    0.01674385
     atom    2 type  1   force =    -0.00333290    0.00378464    0.01671689
     atom    3 type  1   force =    -0.00056734   -0.00066179   -0.01765610
     atom    4 type  1   force =     0.00184935   -0.00268771   -0.01580465

     Total force =     0.034096     Total SCF correction =     0.000022


     Computing stress (Cartesian axis) and pressure

          total   stress  (Ry/bohr**3)                   (kbar)     P=59561.55
   0.40489668   0.00000102   0.00000084      59562.35      0.15      0.12
   0.00000102   0.40488526  -0.00000120          0.15  59560.67     -0.18
   0.00000084  -0.00000120   0.40489189          0.12     -0.18  59561.64


     Writing output data file fe_scf_fcc_2.save/
 
     init_run     :      0.07s CPU      0.12s WALL (       1 calls)
     electrons    :      1.18s CPU      1.32s WALL (       1 calls)
     forces       :      0.01s CPU      0.01s WALL (       1 calls)
     stress       :      0.01s CPU      0.01s WALL (       1 calls)

     Called by init_run:
     wfcinit      :      0.04s CPU      0.05s WALL (       1 calls)
     potinit      :      0.01s CPU      0.02s WALL (       1 calls)
     hinit0       :      0.02s CPU      0.05s WALL (       1 calls)

     Called by electrons:
     c_bands      :      0.87s CPU      0.98s WALL (      10 calls)
     sum_band     :      0.13s CPU      0.14s WALL (      10 calls)
     v_of_rho     :      0.01s CPU      0.01s WALL (      11 calls)
     newd         :      0.00s CPU      0.00s WALL (      11 calls)
     PAW_pot      :      0.15s CPU      0.16s WALL (      11 calls)
     mix_rho      :      0.03s CPU      0.04s WALL (      10 calls)

     Called by c_bands:
     init_us_2    :      0.01s CPU      0.01s WALL (     736 calls)
     cegterg      :      0.85s CPU      0.95s WALL (     320 calls)

     Called by sum_band:
     sum_band:bec :      0.00s CPU      0.00s WALL (     320 calls)
     addusdens    :      0.00s CPU      0.00s WALL (      10 calls)

     Called by *egterg:
     h_psi        :      0.56s CPU      0.64s WALL (    1014 calls)
     s_psi        :      0.01s CPU      0.01s WALL (    1014 calls)
     g_psi        :      0.00s CPU      0.00s WALL (     662 calls)
     cdiaghg      :      0.20s CPU      0.22s WALL (     982 calls)

     Called by h_psi:
     h_psi:pot    :      0.56s CPU      0.63s WALL (    1014 calls)
     h_psi:calbec :      0.05s CPU      0.06s WALL (    1014 calls)
     vloc_psi     :      0.50s CPU      0.56s WALL (    1014 calls)
     add_vuspsi   :      0.01s CPU      0.01s WALL (    1014 calls)

     General routines
     calbec       :      0.07s CPU      0.08s WALL (    1494 calls)
     fft          :      0.02s CPU      0.06s WALL (     167 calls)
     ffts         :      0.00s CPU      0.00s WALL (      21 calls)
     fftw         :      0.56s CPU      0.63s WALL (   20510 calls)
     interpolate  :      0.00s CPU      0.00s WALL (      11 calls)
 
     Parallel routines
     fft_scatt_xy :      0.03s CPU      0.03s WALL (   20698 calls)
     fft_scatt_yz :      0.47s CPU      0.53s WALL (   20698 calls)
 
     PWSCF        :     1.91s CPU         2.24s WALL

 
   This run was terminated on:  19: 7:44  22Oct2019            

=------------------------------------------------------------------------------=
   JOB DONE.
=------------------------------------------------------------------------------=
