
     Program PWSCF v.6.3 starts on 19Oct2019 at 18: 8: 7 

     This program is part of the open-source Quantum ESPRESSO suite
     for quantum simulation of materials; please cite
         "P. Giannozzi et al., J. Phys.:Condens. Matter 21 395502 (2009);
         "P. Giannozzi et al., J. Phys.:Condens. Matter 29 465901 (2017);
          URL http://www.quantum-espresso.org", 
     in publications or presentations arising from this work. More details at
     http://www.quantum-espresso.org/quote

     Parallel version (MPI), running on     1 processors

     MPI processes distributed on     1 nodes
     Reading input from /cloud/Code/python/py_pwscf_converge/src/example/wd/runpwscf/file_10006.in
Warning: card &IONS ignored
Warning: card ION_DYNAMICS = 'BFGS', ignored
Warning: card / ignored
Warning: card &CELL ignored
Warning: card CELL_DYNAMICS = 'BFGS', ignored
Warning: card CELL_FACTOR = 2.0, ignored
Warning: card PRESS = 0.0, ignored
Warning: card / ignored

     Current dimensions of program PWSCF are:
     Max number of different atomic species (ntypx) = 10
     Max number of k-points (npk) =  40000
     Max angular momentum in pseudopotentials (lmaxx) =  3
               file Al.pbe-nl-kjpaw_psl.1.0.0.UPF: wavefunction(s)  3S 3P renormalized

     Subspace diagonalization in iterative solution of the eigenvalue problem:
     a serial algorithm will be used


     G-vector sticks info
     --------------------
     sticks:   dense  smooth     PW     G-vecs:    dense   smooth      PW
     Sum         293     293     97                 3695     3695     691



     bravais-lattice index     =            0
     lattice parameter (alat)  =       4.0400  a.u.
     unit-cell volume          =      65.9393 (a.u.)^3
     number of atoms/cell      =            4
     number of atomic types    =            1
     number of electrons       =        12.00
     number of Kohn-Sham states=           10
     kinetic-energy cutoff     =      55.0000  Ry
     charge density cutoff     =     220.0000  Ry
     convergence threshold     =      1.0E-06
     mixing beta               =       0.1000
     number of iterations used =           10  TF        mixing
     Exchange-correlation      = SLA PW PBX PBC ( 1  4  3  4 0 0)

     celldm(1)=   4.040000  celldm(2)=   0.000000  celldm(3)=   0.000000
     celldm(4)=   0.000000  celldm(5)=   0.000000  celldm(6)=   0.000000

     crystal axes: (cart. coord. in units of alat)
               a(1) = (   1.000000   0.000000   0.000000 )  
               a(2) = (   0.000000   1.000000   0.000000 )  
               a(3) = (   0.000000   0.000000   1.000000 )  

     reciprocal axes: (cart. coord. in units 2 pi/alat)
               b(1) = (  1.000000  0.000000  0.000000 )  
               b(2) = (  0.000000  1.000000  0.000000 )  
               b(3) = (  0.000000  0.000000  1.000000 )  


     PseudoPot. # 1 for Al read from file:
     /opt/pp/Al.pbe-nl-kjpaw_psl.1.0.0.UPF
     MD5 check sum: 1b67f78b73fe58c7924490f171ce8a1e
     Pseudo is Projector augmented-wave + core cor, Zval =  3.0
     Generated using "atomic" code by A. Dal Corso v.6.3
     Shape of augmentation charge: PSQ
     Using radial grid of 1135 points,  4 beta functions with: 
                l(1) =   0
                l(2) =   0
                l(3) =   1
                l(4) =   1
     Q(r) pseudized with 0 coefficients 


     atomic species   valence    mass     pseudopotential
        Al             3.00    26.98200     Al( 1.00)

     No symmetry found



   Cartesian axes

     site n.     atom                  positions (alat units)
         1           Al  tau(   1) = (  -0.0001235   0.0000359   0.0002572  )
         2           Al  tau(   2) = (   0.5003009   0.4992819   0.0002658  )
         3           Al  tau(   3) = (   0.4996490   0.0001153   0.5011170  )
         4           Al  tau(   4) = (  -0.0000756   0.5008267   0.5006943  )

     number of k points=    32  Marzari-Vanderbilt smearing, width (Ry)=  0.0200
                       cart. coord. in units 2pi/alat
        k(    1) = (   0.1250000   0.1250000   0.1250000), wk =   0.0625000
        k(    2) = (   0.1250000   0.1250000   0.3750000), wk =   0.0625000
        k(    3) = (   0.1250000   0.3750000   0.3750000), wk =   0.0625000
        k(    4) = (   0.3750000   0.3750000   0.3750000), wk =   0.0625000
        k(    5) = (  -0.1250000  -0.1250000   0.1250000), wk =   0.0625000
        k(    6) = (  -0.1250000   0.1250000  -0.1250000), wk =   0.0625000
        k(    7) = (   0.1250000  -0.1250000  -0.1250000), wk =   0.0625000
        k(    8) = (  -0.1250000  -0.1250000   0.3750000), wk =   0.0625000
        k(    9) = (  -0.1250000   0.1250000  -0.3750000), wk =   0.0625000
        k(   10) = (   0.1250000  -0.1250000  -0.3750000), wk =   0.0625000
        k(   11) = (   0.3750000  -0.1250000   0.1250000), wk =   0.0625000
        k(   12) = (  -0.3750000  -0.1250000  -0.1250000), wk =   0.0625000
        k(   13) = (   0.3750000   0.1250000  -0.1250000), wk =   0.0625000
        k(   14) = (  -0.3750000   0.1250000   0.1250000), wk =   0.0625000
        k(   15) = (  -0.1250000   0.3750000   0.1250000), wk =   0.0625000
        k(   16) = (  -0.1250000  -0.3750000  -0.1250000), wk =   0.0625000
        k(   17) = (   0.1250000   0.3750000  -0.1250000), wk =   0.0625000
        k(   18) = (   0.1250000  -0.3750000   0.1250000), wk =   0.0625000
        k(   19) = (  -0.1250000  -0.3750000   0.3750000), wk =   0.0625000
        k(   20) = (  -0.1250000   0.3750000  -0.3750000), wk =   0.0625000
        k(   21) = (   0.1250000  -0.3750000  -0.3750000), wk =   0.0625000
        k(   22) = (   0.3750000   0.1250000  -0.3750000), wk =   0.0625000
        k(   23) = (  -0.3750000  -0.1250000  -0.3750000), wk =   0.0625000
        k(   24) = (   0.3750000  -0.1250000   0.3750000), wk =   0.0625000
        k(   25) = (  -0.3750000   0.1250000   0.3750000), wk =   0.0625000
        k(   26) = (   0.3750000  -0.3750000   0.1250000), wk =   0.0625000
        k(   27) = (  -0.3750000  -0.3750000  -0.1250000), wk =   0.0625000
        k(   28) = (   0.3750000   0.3750000  -0.1250000), wk =   0.0625000
        k(   29) = (  -0.3750000   0.3750000   0.1250000), wk =   0.0625000
        k(   30) = (  -0.3750000  -0.3750000   0.3750000), wk =   0.0625000
        k(   31) = (  -0.3750000   0.3750000  -0.3750000), wk =   0.0625000
        k(   32) = (   0.3750000  -0.3750000  -0.3750000), wk =   0.0625000

     Dense  grid:     3695 G-vectors     FFT dimensions: (  20,  20,  20)

     Estimated max dynamical RAM per process >       8.06 MB

     Initial potential from superposition of free atoms

     starting charge   11.99084, renormalised to   12.00000
     Starting wfcs are   16 randomized atomic wfcs
     Checking if some PAW data can be deallocated... 

     total cpu time spent up to now is        1.2 secs

     Self-consistent Calculation

     iteration #  1     ecut=    55.00 Ry     beta= 0.10
     Davidson diagonalization with overlap
     ethr =  1.00E-02,  avg # of iterations =  4.9

     total cpu time spent up to now is        1.9 secs

     total energy              =    -141.65171421 Ry
     Harris-Foulkes estimate   =    -141.80593580 Ry
     estimated scf accuracy    <       0.18086410 Ry

     iteration #  2     ecut=    55.00 Ry     beta= 0.10
     Davidson diagonalization with overlap
     ethr =  1.51E-03,  avg # of iterations =  1.0

     total cpu time spent up to now is        2.4 secs

     total energy              =    -141.16259454 Ry
     Harris-Foulkes estimate   =    -141.65443490 Ry
     estimated scf accuracy    <       0.15219678 Ry

     iteration #  3     ecut=    55.00 Ry     beta= 0.10
     Davidson diagonalization with overlap
     ethr =  1.27E-03,  avg # of iterations =  2.0

     total cpu time spent up to now is        3.0 secs

     total energy              =    -141.24445468 Ry
     Harris-Foulkes estimate   =    -141.25883868 Ry
     estimated scf accuracy    <       0.01611888 Ry

     iteration #  4     ecut=    55.00 Ry     beta= 0.10
     Davidson diagonalization with overlap
     ethr =  1.34E-04,  avg # of iterations =  1.0

     total cpu time spent up to now is        3.6 secs

     total energy              =    -141.24068434 Ry
     Harris-Foulkes estimate   =    -141.24492476 Ry
     estimated scf accuracy    <       0.01271162 Ry

     iteration #  5     ecut=    55.00 Ry     beta= 0.10
     Davidson diagonalization with overlap
     ethr =  1.06E-04,  avg # of iterations =  1.0

     total cpu time spent up to now is        4.1 secs

     total energy              =    -141.24289230 Ry
     Harris-Foulkes estimate   =    -141.24179903 Ry
     estimated scf accuracy    <       0.00072621 Ry

     iteration #  6     ecut=    55.00 Ry     beta= 0.10
     Davidson diagonalization with overlap
     ethr =  6.05E-06,  avg # of iterations =  2.8

     total cpu time spent up to now is        4.7 secs

     total energy              =    -141.24308372 Ry
     Harris-Foulkes estimate   =    -141.24316402 Ry
     estimated scf accuracy    <       0.00007990 Ry

     iteration #  7     ecut=    55.00 Ry     beta= 0.10
     Davidson diagonalization with overlap
     ethr =  6.66E-07,  avg # of iterations =  1.2

     total cpu time spent up to now is        5.2 secs

     total energy              =    -141.24203757 Ry
     Harris-Foulkes estimate   =    -141.24308479 Ry
     estimated scf accuracy    <       0.00006825 Ry

     iteration #  8     ecut=    55.00 Ry     beta= 0.10
     Davidson diagonalization with overlap
     ethr =  5.69E-07,  avg # of iterations =  2.9

     total cpu time spent up to now is        5.7 secs

     total energy              =    -141.24211285 Ry
     Harris-Foulkes estimate   =    -141.24210499 Ry
     estimated scf accuracy    <       0.00000601 Ry

     iteration #  9     ecut=    55.00 Ry     beta= 0.10
     Davidson diagonalization with overlap
     ethr =  5.01E-08,  avg # of iterations =  1.0

     total cpu time spent up to now is        6.2 secs

     total energy              =    -141.24203039 Ry
     Harris-Foulkes estimate   =    -141.24211309 Ry
     estimated scf accuracy    <       0.00000904 Ry

     iteration # 10     ecut=    55.00 Ry     beta= 0.10
     Davidson diagonalization with overlap
     ethr =  5.01E-08,  avg # of iterations =  3.0

     total cpu time spent up to now is        7.9 secs

     total energy              =    -141.24203963 Ry
     Harris-Foulkes estimate   =    -141.24203996 Ry
     estimated scf accuracy    <       0.00000290 Ry

     iteration # 11     ecut=    55.00 Ry     beta= 0.10
     Davidson diagonalization with overlap
     ethr =  2.42E-08,  avg # of iterations =  1.0

     total cpu time spent up to now is        9.4 secs

     total energy              =    -141.24203919 Ry
     Harris-Foulkes estimate   =    -141.24203964 Ry
     estimated scf accuracy    <       0.00000239 Ry

     iteration # 12     ecut=    55.00 Ry     beta= 0.10
     Davidson diagonalization with overlap
     ethr =  1.99E-08,  avg # of iterations =  1.0

     total cpu time spent up to now is       10.9 secs

     End of self-consistent calculation

          k = 0.1250 0.1250 0.1250 (   452 PWs)   bands (ev):

    30.9172  41.4395  41.4586  41.4774  52.4307  52.4510  52.4711  54.9344
    54.9443  54.9543

          k = 0.1250 0.1250 0.3750 (   457 PWs)   bands (ev):

    34.4099  39.0161  43.9451  43.9639  51.8142  51.8315  54.8803  54.8890
    55.6940  61.5187

          k = 0.1250 0.3750 0.3750 (   451 PWs)   bands (ev):

    37.4251  41.6598  41.6967  44.5520  50.4966  52.9091  52.9582  57.0490
    57.5706  60.7348

          k = 0.3750 0.3750 0.3750 (   459 PWs)   bands (ev):

    39.8905  43.9792  44.0172  44.0549  47.7776  47.8191  47.8606  51.6531
    66.9764  66.9792

          k =-0.1250-0.1250 0.1250 (   452 PWs)   bands (ev):

    30.9172  41.4435  41.4586  41.4734  52.4350  52.4509  52.4669  54.9365
    54.9443  54.9522

          k =-0.1250 0.1250-0.1250 (   452 PWs)   bands (ev):

    30.9172  41.4474  41.4586  41.4695  52.4391  52.4510  52.4627  54.9385
    54.9443  54.9502

          k = 0.1250-0.1250-0.1250 (   452 PWs)   bands (ev):

    30.9172  41.4453  41.4586  41.4716  52.4369  52.4510  52.4649  54.9374
    54.9443  54.9512

          k =-0.1250-0.1250 0.3750 (   457 PWs)   bands (ev):

    34.4099  39.0161  43.9451  43.9639  51.8143  51.8315  54.8803  54.8890
    55.6938  61.5190

          k =-0.1250 0.1250-0.3750 (   457 PWs)   bands (ev):

    34.4099  39.0161  43.9502  43.9588  51.8189  51.8268  54.8827  54.8866
    55.6939  61.5188

          k = 0.1250-0.1250-0.3750 (   457 PWs)   bands (ev):

    34.4099  39.0161  43.9502  43.9588  51.8189  51.8268  54.8826  54.8866
    55.6941  61.5185

          k = 0.3750-0.1250 0.1250 (   457 PWs)   bands (ev):

    34.4099  39.0160  43.9502  43.9589  51.8187  51.8267  54.8828  54.8868
    55.6940  61.5189

          k =-0.3750-0.1250-0.1250 (   457 PWs)   bands (ev):

    34.4099  39.0159  43.9465  43.9626  51.8156  51.8303  54.8806  54.8880
    55.6946  61.5191

          k = 0.3750 0.1250-0.1250 (   457 PWs)   bands (ev):

    34.4099  39.0160  43.9502  43.9589  51.8187  51.8267  54.8828  54.8868
    55.6941  61.5189

          k =-0.3750 0.1250 0.1250 (   457 PWs)   bands (ev):

    34.4099  39.0160  43.9465  43.9625  51.8157  51.8304  54.8807  54.8881
    55.6943  61.5190

          k =-0.1250 0.3750 0.1250 (   457 PWs)   bands (ev):

    34.4099  39.0159  43.9535  43.9559  51.8218  51.8240  54.8840  54.8851
    55.6940  61.5189

          k =-0.1250-0.3750-0.1250 (   457 PWs)   bands (ev):

    34.4099  39.0159  43.9500  43.9594  51.8185  51.8271  54.8825  54.8868
    55.6941  61.5190

          k = 0.1250 0.3750-0.1250 (   457 PWs)   bands (ev):

    34.4099  39.0159  43.9535  43.9559  51.8217  51.8240  54.8838  54.8850
    55.6943  61.5189

          k = 0.1250-0.3750 0.1250 (   457 PWs)   bands (ev):

    34.4099  39.0159  43.9500  43.9594  51.8185  51.8271  54.8824  54.8868
    55.6939  61.5190

          k =-0.1250-0.3750 0.3750 (   451 PWs)   bands (ev):

    37.4250  41.6683  41.6884  44.5518  50.4967  52.9202  52.9470  57.0484
    57.5715  60.7379

          k =-0.1250 0.3750-0.3750 (   451 PWs)   bands (ev):

    37.4250  41.6683  41.6884  44.5519  50.4967  52.9201  52.9469  57.0480
    57.5720  60.7383

          k = 0.1250-0.3750-0.3750 (   451 PWs)   bands (ev):

    37.4250  41.6598  41.6967  44.5520  50.4966  52.9091  52.9582  57.0486
    57.5709  60.7341

          k = 0.3750 0.1250-0.3750 (   451 PWs)   bands (ev):

    37.4250  41.6755  41.6811  44.5519  50.4965  52.9300  52.9374  57.0490
    57.5708  60.7391

          k =-0.3750-0.1250-0.3750 (   451 PWs)   bands (ev):

    37.4250  41.6674  41.6891  44.5517  50.4968  52.9193  52.9482  57.0492
    57.5704  60.7380

          k = 0.3750-0.1250 0.3750 (   451 PWs)   bands (ev):

    37.4250  41.6675  41.6891  44.5518  50.4966  52.9192  52.9481  57.0494
    57.5706  60.7376

          k =-0.3750 0.1250 0.3750 (   451 PWs)   bands (ev):

    37.4250  41.6755  41.6811  44.5519  50.4967  52.9301  52.9375  57.0487
    57.5708  60.7389

          k = 0.3750-0.3750 0.1250 (   451 PWs)   bands (ev):

    37.4251  41.6683  41.6882  44.5519  50.4964  52.9203  52.9468  57.0493
    57.5707  60.7364

          k =-0.3750-0.3750-0.1250 (   451 PWs)   bands (ev):

    37.4251  41.6566  41.7000  44.5518  50.4968  52.9047  52.9625  57.0472
    57.5726  60.7342

          k = 0.3750 0.3750-0.1250 (   451 PWs)   bands (ev):

    37.4251  41.6566  41.7000  44.5518  50.4966  52.9046  52.9624  57.0493
    57.5705  60.7349

          k =-0.3750 0.3750 0.1250 (   451 PWs)   bands (ev):

    37.4251  41.6683  41.6882  44.5519  50.4967  52.9205  52.9469  57.0446
    57.5751  60.7364

          k =-0.3750-0.3750 0.3750 (   459 PWs)   bands (ev):

    39.8904  43.9871  44.0172  44.0469  47.7863  47.8190  47.8519  51.6532
    66.9764  66.9783

          k =-0.3750 0.3750-0.3750 (   459 PWs)   bands (ev):

    39.8904  43.9949  44.0171  44.0392  47.7948  47.8190  47.8433  51.6532
    66.9756  66.9785

          k = 0.3750-0.3750-0.3750 (   459 PWs)   bands (ev):

    39.8904  43.9907  44.0171  44.0433  47.7903  47.8191  47.8480  51.6531
    66.9754  66.9792

     the Fermi energy is    52.6629 ev

!    total energy              =    -141.24203878 Ry
     Harris-Foulkes estimate   =    -141.24203923 Ry
     estimated scf accuracy    <       0.00000033 Ry

     total all-electron energy =     -1925.813161 Ry

     The total energy is the sum of the following terms:

     one-electron contribution =      58.67359841 Ry
     hartree contribution      =       0.21199158 Ry
     xc contribution           =     -17.28549191 Ry
     ewald contribution        =     -40.85514765 Ry
     one-center paw contrib.   =    -141.98637553 Ry
     smearing contrib. (-TS)   =      -0.00061367 Ry

     convergence has been achieved in  12 iterations

     Forces acting on atoms (cartesian axes, Ry/au):

     atom    1 type  1   force =     0.00200420   -0.00037804    0.01643937
     atom    2 type  1   force =    -0.00323265    0.00372326    0.01641096
     atom    3 type  1   force =    -0.00056290   -0.00071298   -0.01728607
     atom    4 type  1   force =     0.00179134   -0.00263224   -0.01556426

     Total force =     0.033467     Total SCF correction =     0.000009


     Computing stress (Cartesian axis) and pressure

          total   stress  (Ry/bohr**3)                   (kbar)     P=59671.90
   0.40564677   0.00000114   0.00000087      59672.69      0.17      0.13
   0.00000114   0.40563564  -0.00000113          0.17  59671.05     -0.17
   0.00000087  -0.00000113   0.40564181          0.13     -0.17  59671.96


     Writing output data file fe_scf_fcc_2.save/

     init_run     :      0.65s CPU      0.67s WALL (       1 calls)
     electrons    :      9.56s CPU      9.77s WALL (       1 calls)
     forces       :      0.16s CPU      0.16s WALL (       1 calls)
     stress       :      0.46s CPU      0.47s WALL (       1 calls)

     Called by init_run:
     wfcinit      :      0.14s CPU      0.15s WALL (       1 calls)
     potinit      :      0.25s CPU      0.27s WALL (       1 calls)
     hinit0       :      0.24s CPU      0.25s WALL (       1 calls)

     Called by electrons:
     c_bands      :      4.02s CPU      4.14s WALL (      12 calls)
     sum_band     :      0.77s CPU      0.80s WALL (      12 calls)
     v_of_rho     :      0.10s CPU      0.11s WALL (      13 calls)
     newd         :      0.11s CPU      0.11s WALL (      13 calls)
     PAW_pot      :      4.79s CPU      4.85s WALL (      13 calls)
     mix_rho      :      0.02s CPU      0.02s WALL (      12 calls)

     Called by c_bands:
     init_us_2    :      0.23s CPU      0.23s WALL (     864 calls)
     cegterg      :      3.74s CPU      3.82s WALL (     384 calls)

     Called by sum_band:
     sum_band:bec :      0.01s CPU      0.01s WALL (     384 calls)
     addusdens    :      0.07s CPU      0.07s WALL (      12 calls)

     Called by *egterg:
     h_psi        :      2.83s CPU      2.90s WALL (    1142 calls)
     s_psi        :      0.16s CPU      0.19s WALL (    1142 calls)
     g_psi        :      0.02s CPU      0.03s WALL (     726 calls)
     cdiaghg      :      0.35s CPU      0.31s WALL (    1110 calls)

     Called by h_psi:
     h_psi:pot    :      2.79s CPU      2.88s WALL (    1142 calls)
     h_psi:calbec :      0.21s CPU      0.21s WALL (    1142 calls)
     vloc_psi     :      2.35s CPU      2.45s WALL (    1142 calls)
     add_vuspsi   :      0.21s CPU      0.21s WALL (    1142 calls)

     General routines
     calbec       :      0.35s CPU      0.35s WALL (    1686 calls)
     fft          :      0.02s CPU      0.03s WALL (     169 calls)
     ffts         :      0.00s CPU      0.00s WALL (      12 calls)
     fftw         :      2.41s CPU      2.52s WALL (   23862 calls)

     Parallel routines

     PWSCF        :    11.34s CPU        11.65s WALL


   This run was terminated on:  18: 8:19  19Oct2019            

=------------------------------------------------------------------------------=
   JOB DONE.
=------------------------------------------------------------------------------=
