
     Program PWSCF v.6.3 starts on 22Oct2019 at 19: 3:54 

     This program is part of the open-source Quantum ESPRESSO suite
     for quantum simulation of materials; please cite
         "P. Giannozzi et al., J. Phys.:Condens. Matter 21 395502 (2009);
         "P. Giannozzi et al., J. Phys.:Condens. Matter 29 465901 (2017);
          URL http://www.quantum-espresso.org", 
     in publications or presentations arising from this work. More details at
     http://www.quantum-espresso.org/quote

     Parallel version (MPI & OpenMP), running on      20 processor cores
     Number of MPI processes:                20
     Threads/MPI process:                     1

     MPI processes distributed on     1 nodes
     R & G space division:  proc/nbgrp/npool/nimage =      20
     Reading input from /rds/homes/b/bxp912/jobs/20191022_test/wd/runpwscf/file_10082.in
Warning: card &IONS ignored
Warning: card ION_DYNAMICS = 'BFGS', ignored
Warning: card / ignored
Warning: card &CELL ignored
Warning: card CELL_DYNAMICS = 'BFGS', ignored
Warning: card CELL_FACTOR = 2.0, ignored
Warning: card PRESS = 0.0, ignored
Warning: card / ignored

     Current dimensions of program PWSCF are:
     Max number of different atomic species (ntypx) = 10
     Max number of k-points (npk) =  40000
     Max angular momentum in pseudopotentials (lmaxx) =  3
     Message from routine read_upf::
     Pseudo file /rds/homes/b/bxp912/pp/Al.pbe-nl-kjpaw_psl.1.0.0.UPF has been successfully fixed on the fly.
To avoid this message in the future you can permanently fix 
 your pseudo files following instructions given in: 
https://gitlab.com/QEF/q-e/blob/master/upftools/how_to_fix_upf.md
               file Al.pbe-nl-kjpaw_psl.1.0.0.UPF: wavefunction(s)  3S 3P renormalized

     Subspace diagonalization in iterative solution of the eigenvalue problem:
     a serial algorithm will be used

 
     Parallelization info
     --------------------
     sticks:   dense  smooth     PW     G-vecs:    dense   smooth      PW
     Min           7       7      6                   68       68      52
     Max           8       8      8                   78       78      53
     Sum         149     149    129                 1419     1419    1045
 


     bravais-lattice index     =            0
     lattice parameter (alat)  =       4.0400  a.u.
     unit-cell volume          =      65.9393 (a.u.)^3
     number of atoms/cell      =            4
     number of atomic types    =            1
     number of electrons       =        12.00
     number of Kohn-Sham states=           10
     kinetic-energy cutoff     =      80.0000  Ry
     charge density cutoff     =     120.0000  Ry
     convergence threshold     =      1.0E-06
     mixing beta               =       0.1000
     number of iterations used =           10  TF        mixing
     Exchange-correlation      = SLA PW PBX PBC ( 1  4  3  4 0 0)

     celldm(1)=   4.040000  celldm(2)=   0.000000  celldm(3)=   0.000000
     celldm(4)=   0.000000  celldm(5)=   0.000000  celldm(6)=   0.000000

     crystal axes: (cart. coord. in units of alat)
               a(1) = (   1.000000   0.000000   0.000000 )  
               a(2) = (   0.000000   1.000000   0.000000 )  
               a(3) = (   0.000000   0.000000   1.000000 )  

     reciprocal axes: (cart. coord. in units 2 pi/alat)
               b(1) = (  1.000000  0.000000  0.000000 )  
               b(2) = (  0.000000  1.000000  0.000000 )  
               b(3) = (  0.000000  0.000000  1.000000 )  


     PseudoPot. # 1 for Al read from file:
     /rds/homes/b/bxp912/pp/Al.pbe-nl-kjpaw_psl.1.0.0.UPF
     MD5 check sum: 339dbea23cf3ab9a065ad45c0f9085d7
     Pseudo is Projector augmented-wave + core cor, Zval =  3.0
     Generated using "atomic" code by A. Dal Corso v.5.1
     Shape of augmentation charge: PSQ
     Using radial grid of 1135 points,  4 beta functions with: 
                l(1) =   0
                l(2) =   0
                l(3) =   1
                l(4) =   1
     Q(r) pseudized with 0 coefficients 


     atomic species   valence    mass     pseudopotential
        Al             3.00    26.98200     Al( 1.00)

     No symmetry found



   Cartesian axes

     site n.     atom                  positions (alat units)
         1           Al  tau(   1) = (  -0.0001235   0.0000359   0.0002572  )
         2           Al  tau(   2) = (   0.5003009   0.4992819   0.0002658  )
         3           Al  tau(   3) = (   0.4996490   0.0001153   0.5011170  )
         4           Al  tau(   4) = (  -0.0000756   0.5008267   0.5006943  )

     number of k points=    32  Marzari-Vanderbilt smearing, width (Ry)=  0.0200
                       cart. coord. in units 2pi/alat
        k(    1) = (   0.1250000   0.1250000   0.1250000), wk =   0.0625000
        k(    2) = (   0.1250000   0.1250000   0.3750000), wk =   0.0625000
        k(    3) = (   0.1250000   0.3750000   0.3750000), wk =   0.0625000
        k(    4) = (   0.3750000   0.3750000   0.3750000), wk =   0.0625000
        k(    5) = (  -0.1250000  -0.1250000   0.1250000), wk =   0.0625000
        k(    6) = (  -0.1250000   0.1250000  -0.1250000), wk =   0.0625000
        k(    7) = (   0.1250000  -0.1250000  -0.1250000), wk =   0.0625000
        k(    8) = (  -0.1250000  -0.1250000   0.3750000), wk =   0.0625000
        k(    9) = (  -0.1250000   0.1250000  -0.3750000), wk =   0.0625000
        k(   10) = (   0.1250000  -0.1250000  -0.3750000), wk =   0.0625000
        k(   11) = (   0.3750000  -0.1250000   0.1250000), wk =   0.0625000
        k(   12) = (  -0.3750000  -0.1250000  -0.1250000), wk =   0.0625000
        k(   13) = (   0.3750000   0.1250000  -0.1250000), wk =   0.0625000
        k(   14) = (  -0.3750000   0.1250000   0.1250000), wk =   0.0625000
        k(   15) = (  -0.1250000   0.3750000   0.1250000), wk =   0.0625000
        k(   16) = (  -0.1250000  -0.3750000  -0.1250000), wk =   0.0625000
        k(   17) = (   0.1250000   0.3750000  -0.1250000), wk =   0.0625000
        k(   18) = (   0.1250000  -0.3750000   0.1250000), wk =   0.0625000
        k(   19) = (  -0.1250000  -0.3750000   0.3750000), wk =   0.0625000
        k(   20) = (  -0.1250000   0.3750000  -0.3750000), wk =   0.0625000
        k(   21) = (   0.1250000  -0.3750000  -0.3750000), wk =   0.0625000
        k(   22) = (   0.3750000   0.1250000  -0.3750000), wk =   0.0625000
        k(   23) = (  -0.3750000  -0.1250000  -0.3750000), wk =   0.0625000
        k(   24) = (   0.3750000  -0.1250000   0.3750000), wk =   0.0625000
        k(   25) = (  -0.3750000   0.1250000   0.3750000), wk =   0.0625000
        k(   26) = (   0.3750000  -0.3750000   0.1250000), wk =   0.0625000
        k(   27) = (  -0.3750000  -0.3750000  -0.1250000), wk =   0.0625000
        k(   28) = (   0.3750000   0.3750000  -0.1250000), wk =   0.0625000
        k(   29) = (  -0.3750000   0.3750000   0.1250000), wk =   0.0625000
        k(   30) = (  -0.3750000  -0.3750000   0.3750000), wk =   0.0625000
        k(   31) = (  -0.3750000   0.3750000  -0.3750000), wk =   0.0625000
        k(   32) = (   0.3750000  -0.3750000  -0.3750000), wk =   0.0625000

     Dense  grid:     1419 G-vectors     FFT dimensions: (  15,  15,  15)

     Estimated max dynamical RAM per process >       0.58 MB

     Estimated total dynamical RAM >      11.55 MB

     Initial potential from superposition of free atoms

     starting charge   11.99084, renormalised to   12.00000
     Starting wfcs are   16 randomized atomic wfcs
     Checking if some PAW data can be deallocated... 

     total cpu time spent up to now is        0.7 secs

     Self-consistent Calculation

     iteration #  1     ecut=    80.00 Ry     beta= 0.10
     Davidson diagonalization with overlap
     ethr =  1.00E-02,  avg # of iterations =  4.9

     total cpu time spent up to now is        0.9 secs

     total energy              =    -141.65284320 Ry
     Harris-Foulkes estimate   =    -141.80712532 Ry
     estimated scf accuracy    <       0.18119013 Ry

     iteration #  2     ecut=    80.00 Ry     beta= 0.10
     Davidson diagonalization with overlap
     ethr =  1.51E-03,  avg # of iterations =  1.0

     total cpu time spent up to now is        1.0 secs

     total energy              =    -141.16264545 Ry
     Harris-Foulkes estimate   =    -141.65541579 Ry
     estimated scf accuracy    <       0.15210123 Ry

     iteration #  3     ecut=    80.00 Ry     beta= 0.10
     Davidson diagonalization with overlap
     ethr =  1.27E-03,  avg # of iterations =  2.0

     total cpu time spent up to now is        1.2 secs

     total energy              =    -141.24400748 Ry
     Harris-Foulkes estimate   =    -141.25628776 Ry
     estimated scf accuracy    <       0.01571228 Ry

     iteration #  4     ecut=    80.00 Ry     beta= 0.10
     Davidson diagonalization with overlap
     ethr =  1.31E-04,  avg # of iterations =  1.0

     total cpu time spent up to now is        1.2 secs

     total energy              =    -141.24152757 Ry
     Harris-Foulkes estimate   =    -141.24443680 Ry
     estimated scf accuracy    <       0.01254105 Ry

     iteration #  5     ecut=    80.00 Ry     beta= 0.10
     Davidson diagonalization with overlap
     ethr =  1.05E-04,  avg # of iterations =  1.0

     total cpu time spent up to now is        1.3 secs

     total energy              =    -141.24352146 Ry
     Harris-Foulkes estimate   =    -141.24259907 Ry
     estimated scf accuracy    <       0.00080000 Ry

     iteration #  6     ecut=    80.00 Ry     beta= 0.10
     Davidson diagonalization with overlap
     ethr =  6.67E-06,  avg # of iterations =  2.8

     total cpu time spent up to now is        1.5 secs

     total energy              =    -141.24377428 Ry
     Harris-Foulkes estimate   =    -141.24380125 Ry
     estimated scf accuracy    <       0.00009649 Ry

     iteration #  7     ecut=    80.00 Ry     beta= 0.10
     Davidson diagonalization with overlap
     ethr =  8.04E-07,  avg # of iterations =  1.2

     total cpu time spent up to now is        1.6 secs

     total energy              =    -141.24280009 Ry
     Harris-Foulkes estimate   =    -141.24377592 Ry
     estimated scf accuracy    <       0.00007464 Ry

     iteration #  8     ecut=    80.00 Ry     beta= 0.10
     Davidson diagonalization with overlap
     ethr =  6.22E-07,  avg # of iterations =  2.9

     total cpu time spent up to now is        1.7 secs

     total energy              =    -141.24289778 Ry
     Harris-Foulkes estimate   =    -141.24286727 Ry
     estimated scf accuracy    <       0.00000715 Ry

     iteration #  9     ecut=    80.00 Ry     beta= 0.10
     Davidson diagonalization with overlap
     ethr =  5.96E-08,  avg # of iterations =  2.0

     total cpu time spent up to now is        1.8 secs

     total energy              =    -141.24280226 Ry
     Harris-Foulkes estimate   =    -141.24289854 Ry
     estimated scf accuracy    <       0.00000803 Ry

     iteration # 10     ecut=    80.00 Ry     beta= 0.10
     Davidson diagonalization with overlap
     ethr =  5.96E-08,  avg # of iterations =  3.0

     total cpu time spent up to now is        1.9 secs

     total energy              =    -141.24281212 Ry
     Harris-Foulkes estimate   =    -141.24281226 Ry
     estimated scf accuracy    <       0.00000116 Ry

     iteration # 11     ecut=    80.00 Ry     beta= 0.10
     Davidson diagonalization with overlap
     ethr =  9.68E-09,  avg # of iterations =  1.0

     total cpu time spent up to now is        2.0 secs

     total energy              =    -141.24281228 Ry
     Harris-Foulkes estimate   =    -141.24281213 Ry
     estimated scf accuracy    <       0.00000118 Ry

     iteration # 12     ecut=    80.00 Ry     beta= 0.10
     Davidson diagonalization with overlap
     ethr =  9.68E-09,  avg # of iterations =  1.0

     total cpu time spent up to now is        2.1 secs

     End of self-consistent calculation

          k = 0.1250 0.1250 0.1250 (   793 PWs)   bands (ev):

    30.9165  41.4386  41.4566  41.4765  52.4294  52.4497  52.4698  54.9338
    54.9437  54.9537

          k = 0.1250 0.1250 0.3750 (   798 PWs)   bands (ev):

    34.4094  39.0156  43.9439  43.9628  51.8130  51.8302  54.8792  54.8879
    55.6927  61.5179

          k = 0.1250 0.3750 0.3750 (   802 PWs)   bands (ev):

    37.4246  41.6594  41.6963  44.5513  50.4953  52.9077  52.9569  57.0474
    57.5693  60.7350

          k = 0.3750 0.3750 0.3750 (   795 PWs)   bands (ev):

    39.8900  43.9788  44.0164  44.0546  47.7766  47.8180  47.8596  51.6519
    66.9753  66.9775

          k =-0.1250-0.1250 0.1250 (   793 PWs)   bands (ev):

    30.9165  41.4425  41.4569  41.4724  52.4336  52.4496  52.4656  54.9359
    54.9437  54.9516

          k =-0.1250 0.1250-0.1250 (   793 PWs)   bands (ev):

    30.9165  41.4460  41.4576  41.4681  52.4378  52.4496  52.4614  54.9380
    54.9438  54.9496

          k = 0.1250-0.1250-0.1250 (   793 PWs)   bands (ev):

    30.9165  41.4442  41.4571  41.4704  52.4356  52.4497  52.4636  54.9369
    54.9437  54.9507

          k =-0.1250-0.1250 0.3750 (   798 PWs)   bands (ev):

    34.4094  39.0156  43.9439  43.9627  51.8130  51.8303  54.8793  54.8879
    55.6924  61.5178

          k =-0.1250 0.1250-0.3750 (   798 PWs)   bands (ev):

    34.4094  39.0156  43.9490  43.9576  51.8176  51.8255  54.8816  54.8856
    55.6925  61.5179

          k = 0.1250-0.1250-0.3750 (   798 PWs)   bands (ev):

    34.4094  39.0156  43.9490  43.9577  51.8176  51.8255  54.8816  54.8856
    55.6927  61.5174

          k = 0.3750-0.1250 0.1250 (   798 PWs)   bands (ev):

    34.4094  39.0155  43.9490  43.9577  51.8174  51.8254  54.8817  54.8858
    55.6926  61.5177

          k =-0.3750-0.1250-0.1250 (   798 PWs)   bands (ev):

    34.4094  39.0155  43.9454  43.9614  51.8143  51.8290  54.8795  54.8869
    55.6932  61.5178

          k = 0.3750 0.1250-0.1250 (   798 PWs)   bands (ev):

    34.4094  39.0155  43.9490  43.9578  51.8174  51.8254  54.8817  54.8858
    55.6927  61.5179

          k =-0.3750 0.1250 0.1250 (   798 PWs)   bands (ev):

    34.4094  39.0155  43.9453  43.9614  51.8144  51.8291  54.8796  54.8870
    55.6929  61.5179

          k =-0.1250 0.3750 0.1250 (   798 PWs)   bands (ev):

    34.4094  39.0154  43.9523  43.9547  51.8205  51.8227  54.8829  54.8841
    55.6926  61.5178

          k =-0.1250-0.3750-0.1250 (   798 PWs)   bands (ev):

    34.4094  39.0154  43.9488  43.9583  51.8172  51.8258  54.8814  54.8857
    55.6927  61.5179

          k = 0.1250 0.3750-0.1250 (   798 PWs)   bands (ev):

    34.4094  39.0154  43.9523  43.9547  51.8205  51.8227  54.8828  54.8840
    55.6929  61.5177

          k = 0.1250-0.3750 0.1250 (   798 PWs)   bands (ev):

    34.4094  39.0155  43.9488  43.9582  51.8172  51.8259  54.8814  54.8857
    55.6925  61.5179

          k =-0.1250-0.3750 0.3750 (   802 PWs)   bands (ev):

    37.4246  41.6678  41.6879  44.5512  50.4954  52.9188  52.9456  57.0468
    57.5703  60.7359

          k =-0.1250 0.3750-0.3750 (   802 PWs)   bands (ev):

    37.4246  41.6678  41.6880  44.5512  50.4954  52.9187  52.9456  57.0464
    57.5708  60.7375

          k = 0.1250-0.3750-0.3750 (   802 PWs)   bands (ev):

    37.4246  41.6594  41.6963  44.5514  50.4953  52.9077  52.9569  57.0470
    57.5696  60.7324

          k = 0.3750 0.1250-0.3750 (   802 PWs)   bands (ev):

    37.4246  41.6750  41.6806  44.5512  50.4952  52.9286  52.9360  57.0474
    57.5696  60.7380

          k =-0.3750-0.1250-0.3750 (   802 PWs)   bands (ev):

    37.4246  41.6670  41.6887  44.5511  50.4955  52.9179  52.9468  57.0476
    57.5691  60.7345

          k = 0.3750-0.1250 0.3750 (   802 PWs)   bands (ev):

    37.4246  41.6670  41.6887  44.5511  50.4953  52.9178  52.9467  57.0478
    57.5693  60.7375

          k =-0.3750 0.1250 0.3750 (   802 PWs)   bands (ev):

    37.4246  41.6750  41.6806  44.5512  50.4954  52.9287  52.9361  57.0471
    57.5696  60.7383

          k = 0.3750-0.3750 0.1250 (   802 PWs)   bands (ev):

    37.4247  41.6679  41.6878  44.5513  50.4951  52.9190  52.9454  57.0477
    57.5694  60.7393

          k =-0.3750-0.3750-0.1250 (   802 PWs)   bands (ev):

    37.4247  41.6562  41.6995  44.5511  50.4955  52.9033  52.9611  57.0456
    57.5713  60.7327

          k = 0.3750 0.3750-0.1250 (   802 PWs)   bands (ev):

    37.4247  41.6562  41.6995  44.5512  50.4953  52.9033  52.9610  57.0477
    57.5693  60.7314

          k =-0.3750 0.3750 0.1250 (   802 PWs)   bands (ev):

    37.4247  41.6679  41.6877  44.5512  50.4954  52.9191  52.9455  57.0430
    57.5738  60.7369

          k =-0.3750-0.3750 0.3750 (   795 PWs)   bands (ev):

    39.8900  43.9867  44.0165  44.0465  47.7853  47.8180  47.8509  51.6520
    66.9748  66.9762

          k =-0.3750 0.3750-0.3750 (   795 PWs)   bands (ev):

    39.8899  43.9943  44.0167  44.0386  47.7938  47.8180  47.8423  51.6520
    66.9744  66.9777

          k = 0.3750-0.3750-0.3750 (   795 PWs)   bands (ev):

    39.8900  43.9903  44.0165  44.0428  47.7893  47.8181  47.8469  51.6519
    66.9738  66.9783

     the Fermi energy is    52.6616 ev

!    total energy              =    -141.24281190 Ry
     Harris-Foulkes estimate   =    -141.24281232 Ry
     estimated scf accuracy    <       0.00000035 Ry

     total all-electron energy =     -1925.813940 Ry

     The total energy is the sum of the following terms:

     one-electron contribution =      58.67241077 Ry
     hartree contribution      =       0.21192120 Ry
     xc contribution           =     -17.28512592 Ry
     ewald contribution        =     -40.85514764 Ry
     one-center paw contrib.   =    -141.98625588 Ry
     smearing contrib. (-TS)   =      -0.00061443 Ry

     convergence has been achieved in  12 iterations

     Forces acting on atoms (cartesian axes, Ry/au):

     atom    1 type  1   force =     0.00200596   -0.00039212    0.01643268
     atom    2 type  1   force =    -0.00323989    0.00370754    0.01640286
     atom    3 type  1   force =    -0.00056301   -0.00069214   -0.01729655
     atom    4 type  1   force =     0.00179694   -0.00262327   -0.01553899

     Total force =     0.033452     Total SCF correction =     0.000005


     Computing stress (Cartesian axis) and pressure

          total   stress  (Ry/bohr**3)                   (kbar)     P=59673.23
   0.40565583   0.00000114   0.00000097      59674.02      0.17      0.14
   0.00000114   0.40564455  -0.00000111          0.17  59672.36     -0.16
   0.00000097  -0.00000111   0.40565100          0.14     -0.16  59673.31


     Writing output data file fe_scf_fcc_2.save/
 
     init_run     :      0.11s CPU      0.14s WALL (       1 calls)
     electrons    :      1.31s CPU      1.43s WALL (       1 calls)
     forces       :      0.01s CPU      0.01s WALL (       1 calls)
     stress       :      0.01s CPU      0.01s WALL (       1 calls)

     Called by init_run:
     wfcinit      :      0.05s CPU      0.06s WALL (       1 calls)
     potinit      :      0.01s CPU      0.02s WALL (       1 calls)
     hinit0       :      0.04s CPU      0.06s WALL (       1 calls)

     Called by electrons:
     c_bands      :      0.97s CPU      1.06s WALL (      12 calls)
     sum_band     :      0.17s CPU      0.18s WALL (      12 calls)
     v_of_rho     :      0.01s CPU      0.01s WALL (      13 calls)
     newd         :      0.00s CPU      0.00s WALL (      13 calls)
     PAW_pot      :      0.15s CPU      0.17s WALL (      13 calls)
     mix_rho      :      0.00s CPU      0.00s WALL (      12 calls)

     Called by c_bands:
     init_us_2    :      0.01s CPU      0.01s WALL (     864 calls)
     cegterg      :      0.94s CPU      1.02s WALL (     384 calls)

     Called by sum_band:
     sum_band:bec :      0.00s CPU      0.00s WALL (     384 calls)
     addusdens    :      0.00s CPU      0.00s WALL (      12 calls)

     Called by *egterg:
     h_psi        :      0.67s CPU      0.73s WALL (    1176 calls)
     s_psi        :      0.01s CPU      0.01s WALL (    1176 calls)
     g_psi        :      0.00s CPU      0.00s WALL (     760 calls)
     cdiaghg      :      0.19s CPU      0.20s WALL (    1144 calls)

     Called by h_psi:
     h_psi:pot    :      0.67s CPU      0.73s WALL (    1176 calls)
     h_psi:calbec :      0.06s CPU      0.07s WALL (    1176 calls)
     vloc_psi     :      0.59s CPU      0.64s WALL (    1176 calls)
     add_vuspsi   :      0.01s CPU      0.01s WALL (    1176 calls)

     General routines
     calbec       :      0.10s CPU      0.11s WALL (    1720 calls)
     fft          :      0.04s CPU      0.05s WALL (     169 calls)
     ffts         :      0.00s CPU      0.00s WALL (      12 calls)
     fftw         :      0.67s CPU      0.73s WALL (   23860 calls)
 
     Parallel routines
     fft_scatt_xy :      0.04s CPU      0.04s WALL (   24041 calls)
     fft_scatt_yz :      0.57s CPU      0.62s WALL (   24041 calls)
 
     PWSCF        :     2.00s CPU         2.79s WALL

 
   This run was terminated on:  19: 3:57  22Oct2019            

=------------------------------------------------------------------------------=
   JOB DONE.
=------------------------------------------------------------------------------=
