
     Program PWSCF v.6.3 starts on 22Oct2019 at 19: 7:50 

     This program is part of the open-source Quantum ESPRESSO suite
     for quantum simulation of materials; please cite
         "P. Giannozzi et al., J. Phys.:Condens. Matter 21 395502 (2009);
         "P. Giannozzi et al., J. Phys.:Condens. Matter 29 465901 (2017);
          URL http://www.quantum-espresso.org", 
     in publications or presentations arising from this work. More details at
     http://www.quantum-espresso.org/quote

     Parallel version (MPI & OpenMP), running on      20 processor cores
     Number of MPI processes:                20
     Threads/MPI process:                     1

     MPI processes distributed on     1 nodes
     R & G space division:  proc/nbgrp/npool/nimage =      20
     Reading input from /rds/homes/b/bxp912/jobs/20191022_test/wd/runpwscf/file_10170.in
Warning: card &IONS ignored
Warning: card ION_DYNAMICS = 'BFGS', ignored
Warning: card / ignored
Warning: card &CELL ignored
Warning: card CELL_DYNAMICS = 'BFGS', ignored
Warning: card CELL_FACTOR = 2.0, ignored
Warning: card PRESS = 0.0, ignored
Warning: card / ignored

     Current dimensions of program PWSCF are:
     Max number of different atomic species (ntypx) = 10
     Max number of k-points (npk) =  40000
     Max angular momentum in pseudopotentials (lmaxx) =  3
     Message from routine read_upf::
     Pseudo file /rds/homes/b/bxp912/pp/Al.pbe-nl-kjpaw_psl.1.0.0.UPF has been successfully fixed on the fly.
To avoid this message in the future you can permanently fix 
 your pseudo files following instructions given in: 
https://gitlab.com/QEF/q-e/blob/master/upftools/how_to_fix_upf.md
               file Al.pbe-nl-kjpaw_psl.1.0.0.UPF: wavefunction(s)  3S 3P renormalized

     Subspace diagonalization in iterative solution of the eigenvalue problem:
     a serial algorithm will be used

 
     Parallelization info
     --------------------
     sticks:   dense  smooth     PW     G-vecs:    dense   smooth      PW
     Min          15      10      3                  205      114      21
     Max          16      11      4                  208      117      26
     Sum         305     213     69                 4139     2301     461
 


     bravais-lattice index     =            0
     lattice parameter (alat)  =       4.0400  a.u.
     unit-cell volume          =      65.9393 (a.u.)^3
     number of atoms/cell      =            4
     number of atomic types    =            1
     number of electrons       =        12.00
     number of Kohn-Sham states=           10
     kinetic-energy cutoff     =      40.0000  Ry
     charge density cutoff     =     240.0000  Ry
     convergence threshold     =      1.0E-06
     mixing beta               =       0.1000
     number of iterations used =           10  TF        mixing
     Exchange-correlation      = SLA PW PBX PBC ( 1  4  3  4 0 0)

     celldm(1)=   4.040000  celldm(2)=   0.000000  celldm(3)=   0.000000
     celldm(4)=   0.000000  celldm(5)=   0.000000  celldm(6)=   0.000000

     crystal axes: (cart. coord. in units of alat)
               a(1) = (   1.000000   0.000000   0.000000 )  
               a(2) = (   0.000000   1.000000   0.000000 )  
               a(3) = (   0.000000   0.000000   1.000000 )  

     reciprocal axes: (cart. coord. in units 2 pi/alat)
               b(1) = (  1.000000  0.000000  0.000000 )  
               b(2) = (  0.000000  1.000000  0.000000 )  
               b(3) = (  0.000000  0.000000  1.000000 )  


     PseudoPot. # 1 for Al read from file:
     /rds/homes/b/bxp912/pp/Al.pbe-nl-kjpaw_psl.1.0.0.UPF
     MD5 check sum: 339dbea23cf3ab9a065ad45c0f9085d7
     Pseudo is Projector augmented-wave + core cor, Zval =  3.0
     Generated using "atomic" code by A. Dal Corso v.5.1
     Shape of augmentation charge: PSQ
     Using radial grid of 1135 points,  4 beta functions with: 
                l(1) =   0
                l(2) =   0
                l(3) =   1
                l(4) =   1
     Q(r) pseudized with 0 coefficients 


     atomic species   valence    mass     pseudopotential
        Al             3.00    26.98200     Al( 1.00)

     No symmetry found



   Cartesian axes

     site n.     atom                  positions (alat units)
         1           Al  tau(   1) = (  -0.0001235   0.0000359   0.0002572  )
         2           Al  tau(   2) = (   0.5003009   0.4992819   0.0002658  )
         3           Al  tau(   3) = (   0.4996490   0.0001153   0.5011170  )
         4           Al  tau(   4) = (  -0.0000756   0.5008267   0.5006943  )

     number of k points=    32  Marzari-Vanderbilt smearing, width (Ry)=  0.0200
                       cart. coord. in units 2pi/alat
        k(    1) = (   0.1250000   0.1250000   0.1250000), wk =   0.0625000
        k(    2) = (   0.1250000   0.1250000   0.3750000), wk =   0.0625000
        k(    3) = (   0.1250000   0.3750000   0.3750000), wk =   0.0625000
        k(    4) = (   0.3750000   0.3750000   0.3750000), wk =   0.0625000
        k(    5) = (  -0.1250000  -0.1250000   0.1250000), wk =   0.0625000
        k(    6) = (  -0.1250000   0.1250000  -0.1250000), wk =   0.0625000
        k(    7) = (   0.1250000  -0.1250000  -0.1250000), wk =   0.0625000
        k(    8) = (  -0.1250000  -0.1250000   0.3750000), wk =   0.0625000
        k(    9) = (  -0.1250000   0.1250000  -0.3750000), wk =   0.0625000
        k(   10) = (   0.1250000  -0.1250000  -0.3750000), wk =   0.0625000
        k(   11) = (   0.3750000  -0.1250000   0.1250000), wk =   0.0625000
        k(   12) = (  -0.3750000  -0.1250000  -0.1250000), wk =   0.0625000
        k(   13) = (   0.3750000   0.1250000  -0.1250000), wk =   0.0625000
        k(   14) = (  -0.3750000   0.1250000   0.1250000), wk =   0.0625000
        k(   15) = (  -0.1250000   0.3750000   0.1250000), wk =   0.0625000
        k(   16) = (  -0.1250000  -0.3750000  -0.1250000), wk =   0.0625000
        k(   17) = (   0.1250000   0.3750000  -0.1250000), wk =   0.0625000
        k(   18) = (   0.1250000  -0.3750000   0.1250000), wk =   0.0625000
        k(   19) = (  -0.1250000  -0.3750000   0.3750000), wk =   0.0625000
        k(   20) = (  -0.1250000   0.3750000  -0.3750000), wk =   0.0625000
        k(   21) = (   0.1250000  -0.3750000  -0.3750000), wk =   0.0625000
        k(   22) = (   0.3750000   0.1250000  -0.3750000), wk =   0.0625000
        k(   23) = (  -0.3750000  -0.1250000  -0.3750000), wk =   0.0625000
        k(   24) = (   0.3750000  -0.1250000   0.3750000), wk =   0.0625000
        k(   25) = (  -0.3750000   0.1250000   0.3750000), wk =   0.0625000
        k(   26) = (   0.3750000  -0.3750000   0.1250000), wk =   0.0625000
        k(   27) = (  -0.3750000  -0.3750000  -0.1250000), wk =   0.0625000
        k(   28) = (   0.3750000   0.3750000  -0.1250000), wk =   0.0625000
        k(   29) = (  -0.3750000   0.3750000   0.1250000), wk =   0.0625000
        k(   30) = (  -0.3750000  -0.3750000   0.3750000), wk =   0.0625000
        k(   31) = (  -0.3750000   0.3750000  -0.3750000), wk =   0.0625000
        k(   32) = (   0.3750000  -0.3750000  -0.3750000), wk =   0.0625000

     Dense  grid:     4139 G-vectors     FFT dimensions: (  20,  20,  20)

     Smooth grid:     2301 G-vectors     FFT dimensions: (  18,  18,  18)

     Estimated max dynamical RAM per process >       0.60 MB

     Estimated total dynamical RAM >      12.08 MB

     Initial potential from superposition of free atoms

     starting charge   11.99084, renormalised to   12.00000
     Starting wfcs are   16 randomized atomic wfcs
     Checking if some PAW data can be deallocated... 

     total cpu time spent up to now is        0.7 secs

     Self-consistent Calculation

     iteration #  1     ecut=    40.00 Ry     beta= 0.10
     Davidson diagonalization with overlap
     ethr =  1.00E-02,  avg # of iterations =  4.8

     total cpu time spent up to now is        0.9 secs

     total energy              =    -141.64971842 Ry
     Harris-Foulkes estimate   =    -141.80422348 Ry
     estimated scf accuracy    <       0.18115886 Ry

     iteration #  2     ecut=    40.00 Ry     beta= 0.10
     Davidson diagonalization with overlap
     ethr =  1.51E-03,  avg # of iterations =  1.0

     total cpu time spent up to now is        1.0 secs

     total energy              =    -141.15937467 Ry
     Harris-Foulkes estimate   =    -141.65321036 Ry
     estimated scf accuracy    <       0.15193270 Ry

     iteration #  3     ecut=    40.00 Ry     beta= 0.10
     Davidson diagonalization with overlap
     ethr =  1.27E-03,  avg # of iterations =  2.0

     total cpu time spent up to now is        1.1 secs

     total energy              =    -141.23639185 Ry
     Harris-Foulkes estimate   =    -141.24623530 Ry
     estimated scf accuracy    <       0.01476855 Ry

     iteration #  4     ecut=    40.00 Ry     beta= 0.10
     Davidson diagonalization with overlap
     ethr =  1.23E-04,  avg # of iterations =  1.0

     total cpu time spent up to now is        1.2 secs

     total energy              =    -141.23959940 Ry
     Harris-Foulkes estimate   =    -141.23693906 Ry
     estimated scf accuracy    <       0.01141808 Ry

     iteration #  5     ecut=    40.00 Ry     beta= 0.10
     Davidson diagonalization with overlap
     ethr =  9.52E-05,  avg # of iterations =  1.9

     total cpu time spent up to now is        1.3 secs

     total energy              =    -141.24152939 Ry
     Harris-Foulkes estimate   =    -141.24077202 Ry
     estimated scf accuracy    <       0.00049733 Ry

     iteration #  6     ecut=    40.00 Ry     beta= 0.10
     Davidson diagonalization with overlap
     ethr =  4.14E-06,  avg # of iterations =  2.8

     total cpu time spent up to now is        1.4 secs

     total energy              =    -141.24166210 Ry
     Harris-Foulkes estimate   =    -141.24167538 Ry
     estimated scf accuracy    <       0.00011155 Ry

     iteration #  7     ecut=    40.00 Ry     beta= 0.10
     Davidson diagonalization with overlap
     ethr =  9.30E-07,  avg # of iterations =  1.0

     total cpu time spent up to now is        1.5 secs

     total energy              =    -141.24097641 Ry
     Harris-Foulkes estimate   =    -141.24166444 Ry
     estimated scf accuracy    <       0.00009312 Ry

     iteration #  8     ecut=    40.00 Ry     beta= 0.10
     Davidson diagonalization with overlap
     ethr =  7.76E-07,  avg # of iterations =  2.0

     total cpu time spent up to now is        1.6 secs

     total energy              =    -141.24091600 Ry
     Harris-Foulkes estimate   =    -141.24101169 Ry
     estimated scf accuracy    <       0.00000545 Ry

     iteration #  9     ecut=    40.00 Ry     beta= 0.10
     Davidson diagonalization with overlap
     ethr =  4.54E-08,  avg # of iterations =  2.8

     total cpu time spent up to now is        1.7 secs

     total energy              =    -141.24087368 Ry
     Harris-Foulkes estimate   =    -141.24091910 Ry
     estimated scf accuracy    <       0.00001413 Ry

     iteration # 10     ecut=    40.00 Ry     beta= 0.10
     Davidson diagonalization with overlap
     ethr =  4.54E-08,  avg # of iterations =  2.4

     total cpu time spent up to now is        1.8 secs

     total energy              =    -141.24088006 Ry
     Harris-Foulkes estimate   =    -141.24087808 Ry
     estimated scf accuracy    <       0.00000539 Ry

     iteration # 11     ecut=    40.00 Ry     beta= 0.10
     Davidson diagonalization with overlap
     ethr =  4.49E-08,  avg # of iterations =  1.0

     total cpu time spent up to now is        1.9 secs

     total energy              =    -141.24087693 Ry
     Harris-Foulkes estimate   =    -141.24088025 Ry
     estimated scf accuracy    <       0.00000209 Ry

     iteration # 12     ecut=    40.00 Ry     beta= 0.10
     Davidson diagonalization with overlap
     ethr =  1.74E-08,  avg # of iterations =  2.0

     total cpu time spent up to now is        2.0 secs

     End of self-consistent calculation

          k = 0.1250 0.1250 0.1250 (   275 PWs)   bands (ev):

    30.9149  41.4402  41.4593  41.4781  52.4351  52.4554  52.4755  54.9328
    54.9427  54.9527

          k = 0.1250 0.1250 0.3750 (   280 PWs)   bands (ev):

    34.4076  39.0144  43.9447  43.9635  51.8145  51.8317  54.8808  54.8894
    55.6994  61.5201

          k = 0.1250 0.3750 0.3750 (   278 PWs)   bands (ev):

    37.4228  41.6580  41.6948  44.5507  50.4969  52.9096  52.9587  57.0502
    57.5713  60.7412

          k = 0.3750 0.3750 0.3750 (   289 PWs)   bands (ev):

    39.8885  43.9778  44.0157  44.0535  47.7776  47.8190  47.8605  51.6528
    66.9826  66.9881

          k =-0.1250-0.1250 0.1250 (   275 PWs)   bands (ev):

    30.9149  41.4442  41.4593  41.4741  52.4393  52.4553  52.4712  54.9349
    54.9427  54.9506

          k =-0.1250 0.1250-0.1250 (   275 PWs)   bands (ev):

    30.9149  41.4481  41.4593  41.4702  52.4434  52.4553  52.4670  54.9369
    54.9427  54.9486

          k = 0.1250-0.1250-0.1250 (   275 PWs)   bands (ev):

    30.9149  41.4460  41.4593  41.4723  52.4413  52.4554  52.4693  54.9358
    54.9427  54.9496

          k =-0.1250-0.1250 0.3750 (   280 PWs)   bands (ev):

    34.4076  39.0144  43.9446  43.9634  51.8145  51.8317  54.8808  54.8894
    55.6991  61.5202

          k =-0.1250 0.1250-0.3750 (   280 PWs)   bands (ev):

    34.4076  39.0144  43.9497  43.9584  51.8191  51.8270  54.8831  54.8871
    55.6992  61.5201

          k = 0.1250-0.1250-0.3750 (   280 PWs)   bands (ev):

    34.4076  39.0144  43.9498  43.9584  51.8191  51.8270  54.8831  54.8871
    55.6994  61.5197

          k = 0.3750-0.1250 0.1250 (   280 PWs)   bands (ev):

    34.4076  39.0143  43.9497  43.9585  51.8189  51.8269  54.8833  54.8873
    55.6994  61.5202

          k =-0.3750-0.1250-0.1250 (   280 PWs)   bands (ev):

    34.4076  39.0142  43.9461  43.9621  51.8158  51.8305  54.8811  54.8884
    55.7000  61.5202

          k = 0.3750 0.1250-0.1250 (   280 PWs)   bands (ev):

    34.4076  39.0142  43.9497  43.9585  51.8189  51.8269  54.8833  54.8873
    55.6994  61.5203

          k =-0.3750 0.1250 0.1250 (   280 PWs)   bands (ev):

    34.4076  39.0143  43.9461  43.9621  51.8159  51.8306  54.8811  54.8885
    55.6996  61.5203

          k =-0.1250 0.3750 0.1250 (   280 PWs)   bands (ev):

    34.4076  39.0142  43.9530  43.9554  51.8220  51.8242  54.8844  54.8856
    55.6993  61.5203

          k =-0.1250-0.3750-0.1250 (   280 PWs)   bands (ev):

    34.4076  39.0142  43.9496  43.9590  51.8187  51.8273  54.8829  54.8873
    55.6994  61.5203

          k = 0.1250 0.3750-0.1250 (   280 PWs)   bands (ev):

    34.4076  39.0142  43.9530  43.9554  51.8220  51.8242  54.8843  54.8855
    55.6996  61.5202

          k = 0.1250-0.3750 0.1250 (   280 PWs)   bands (ev):

    34.4076  39.0142  43.9495  43.9589  51.8187  51.8273  54.8829  54.8872
    55.6992  61.5202

          k =-0.1250-0.3750 0.3750 (   278 PWs)   bands (ev):

    37.4227  41.6664  41.6865  44.5505  50.4971  52.9207  52.9475  57.0495
    57.5722  60.7422

          k =-0.1250 0.3750-0.3750 (   278 PWs)   bands (ev):

    37.4227  41.6664  41.6865  44.5506  50.4971  52.9206  52.9474  57.0491
    57.5727  60.7409

          k = 0.1250-0.3750-0.3750 (   278 PWs)   bands (ev):

    37.4227  41.6580  41.6948  44.5507  50.4969  52.9096  52.9587  57.0498
    57.5716  60.7388

          k = 0.3750 0.1250-0.3750 (   278 PWs)   bands (ev):

    37.4227  41.6736  41.6792  44.5506  50.4969  52.9305  52.9379  57.0502
    57.5715  60.7445

          k =-0.3750-0.1250-0.3750 (   278 PWs)   bands (ev):

    37.4227  41.6656  41.6872  44.5505  50.4972  52.9198  52.9487  57.0504
    57.5711  60.7419

          k = 0.3750-0.1250 0.3750 (   278 PWs)   bands (ev):

    37.4227  41.6656  41.6872  44.5505  50.4970  52.9197  52.9486  57.0506
    57.5713  60.7420

          k =-0.3750 0.1250 0.3750 (   278 PWs)   bands (ev):

    37.4227  41.6736  41.6792  44.5506  50.4970  52.9306  52.9380  57.0498
    57.5715  60.7442

          k = 0.3750-0.3750 0.1250 (   278 PWs)   bands (ev):

    37.4228  41.6664  41.6863  44.5506  50.4967  52.9209  52.9473  57.0504
    57.5714  60.7436

          k =-0.3750-0.3750-0.1250 (   278 PWs)   bands (ev):

    37.4228  41.6547  41.6981  44.5505  50.4971  52.9052  52.9630  57.0484
    57.5733  60.7392

          k = 0.3750 0.3750-0.1250 (   278 PWs)   bands (ev):

    37.4228  41.6547  41.6981  44.5505  50.4969  52.9052  52.9629  57.0505
    57.5713  60.7383

          k =-0.3750 0.3750 0.1250 (   278 PWs)   bands (ev):

    37.4228  41.6664  41.6863  44.5506  50.4971  52.9210  52.9474  57.0458
    57.5758  60.7421

          k =-0.3750-0.3750 0.3750 (   289 PWs)   bands (ev):

    39.8884  43.9857  44.0158  44.0455  47.7863  47.8190  47.8518  51.6529
    66.9827  66.9863

          k =-0.3750 0.3750-0.3750 (   289 PWs)   bands (ev):

    39.8884  43.9935  44.0157  44.0377  47.7948  47.8190  47.8433  51.6529
    66.9839  66.9866

          k = 0.3750-0.3750-0.3750 (   289 PWs)   bands (ev):

    39.8884  43.9893  44.0156  44.0419  47.7903  47.8191  47.8479  51.6528
    66.9844  66.9871

     the Fermi energy is    52.6661 ev

!    total energy              =    -141.24087724 Ry
     Harris-Foulkes estimate   =    -141.24087746 Ry
     estimated scf accuracy    <       0.00000012 Ry

     total all-electron energy =     -1925.812005 Ry

     The total energy is the sum of the following terms:

     one-electron contribution =      58.67556902 Ry
     hartree contribution      =       0.21190668 Ry
     xc contribution           =     -17.28524884 Ry
     ewald contribution        =     -40.85514763 Ry
     one-center paw contrib.   =    -141.98728176 Ry
     smearing contrib. (-TS)   =      -0.00067471 Ry

     convergence has been achieved in  12 iterations

     Forces acting on atoms (cartesian axes, Ry/au):

     atom    1 type  1   force =     0.00199639   -0.00038920    0.01646366
     atom    2 type  1   force =    -0.00320081    0.00365439    0.01643631
     atom    3 type  1   force =    -0.00058241   -0.00070534   -0.01730128
     atom    4 type  1   force =     0.00178683   -0.00255985   -0.01559869

     Total force =     0.033499     Total SCF correction =     0.000010


     Computing stress (Cartesian axis) and pressure

          total   stress  (Ry/bohr**3)                   (kbar)     P=59656.87
   0.40554468   0.00000116   0.00000095      59657.67      0.17      0.14
   0.00000116   0.40553332  -0.00000124          0.17  59656.00     -0.18
   0.00000095  -0.00000124   0.40553969          0.14     -0.18  59656.94


     Writing output data file fe_scf_fcc_2.save/
 
     init_run     :      0.10s CPU      0.13s WALL (       1 calls)
     electrons    :      1.21s CPU      1.34s WALL (       1 calls)
     forces       :      0.01s CPU      0.01s WALL (       1 calls)
     stress       :      0.01s CPU      0.01s WALL (       1 calls)

     Called by init_run:
     wfcinit      :      0.04s CPU      0.05s WALL (       1 calls)
     potinit      :      0.01s CPU      0.02s WALL (       1 calls)
     hinit0       :      0.03s CPU      0.06s WALL (       1 calls)

     Called by electrons:
     c_bands      :      0.90s CPU      1.00s WALL (      12 calls)
     sum_band     :      0.14s CPU      0.15s WALL (      12 calls)
     v_of_rho     :      0.01s CPU      0.01s WALL (      13 calls)
     newd         :      0.00s CPU      0.00s WALL (      13 calls)
     PAW_pot      :      0.15s CPU      0.16s WALL (      13 calls)
     mix_rho      :      0.01s CPU      0.01s WALL (      12 calls)

     Called by c_bands:
     init_us_2    :      0.01s CPU      0.01s WALL (     864 calls)
     cegterg      :      0.88s CPU      0.97s WALL (     384 calls)

     Called by sum_band:
     sum_band:bec :      0.00s CPU      0.00s WALL (     384 calls)
     addusdens    :      0.00s CPU      0.00s WALL (      12 calls)

     Called by *egterg:
     h_psi        :      0.60s CPU      0.66s WALL (    1205 calls)
     s_psi        :      0.01s CPU      0.01s WALL (    1205 calls)
     g_psi        :      0.00s CPU      0.00s WALL (     789 calls)
     cdiaghg      :      0.20s CPU      0.22s WALL (    1173 calls)

     Called by h_psi:
     h_psi:pot    :      0.60s CPU      0.66s WALL (    1205 calls)
     h_psi:calbec :      0.06s CPU      0.07s WALL (    1205 calls)
     vloc_psi     :      0.53s CPU      0.58s WALL (    1205 calls)
     add_vuspsi   :      0.01s CPU      0.01s WALL (    1205 calls)

     General routines
     calbec       :      0.08s CPU      0.09s WALL (    1749 calls)
     fft          :      0.04s CPU      0.06s WALL (     193 calls)
     ffts         :      0.00s CPU      0.00s WALL (      25 calls)
     fftw         :      0.59s CPU      0.65s WALL (   24116 calls)
     interpolate  :      0.00s CPU      0.00s WALL (      13 calls)
 
     Parallel routines
     fft_scatt_xy :      0.04s CPU      0.04s WALL (   24334 calls)
     fft_scatt_yz :      0.47s CPU      0.53s WALL (   24334 calls)
 
     PWSCF        :     1.93s CPU         2.34s WALL

 
   This run was terminated on:  19: 7:52  22Oct2019            

=------------------------------------------------------------------------------=
   JOB DONE.
=------------------------------------------------------------------------------=
