
     Program PWSCF v.6.3 starts on 22Oct2019 at 19: 3: 8 

     This program is part of the open-source Quantum ESPRESSO suite
     for quantum simulation of materials; please cite
         "P. Giannozzi et al., J. Phys.:Condens. Matter 21 395502 (2009);
         "P. Giannozzi et al., J. Phys.:Condens. Matter 29 465901 (2017);
          URL http://www.quantum-espresso.org", 
     in publications or presentations arising from this work. More details at
     http://www.quantum-espresso.org/quote

     Parallel version (MPI & OpenMP), running on      20 processor cores
     Number of MPI processes:                20
     Threads/MPI process:                     1

     MPI processes distributed on     1 nodes
     R & G space division:  proc/nbgrp/npool/nimage =      20
     Reading input from /rds/homes/b/bxp912/jobs/20191022_test/wd/runpwscf/file_10063.in
Warning: card &IONS ignored
Warning: card ION_DYNAMICS = 'BFGS', ignored
Warning: card / ignored
Warning: card &CELL ignored
Warning: card CELL_DYNAMICS = 'BFGS', ignored
Warning: card CELL_FACTOR = 2.0, ignored
Warning: card PRESS = 0.0, ignored
Warning: card / ignored

     Current dimensions of program PWSCF are:
     Max number of different atomic species (ntypx) = 10
     Max number of k-points (npk) =  40000
     Max angular momentum in pseudopotentials (lmaxx) =  3
     Message from routine read_upf::
     Pseudo file /rds/homes/b/bxp912/pp/Al.pbe-nl-kjpaw_psl.1.0.0.UPF has been successfully fixed on the fly.
To avoid this message in the future you can permanently fix 
 your pseudo files following instructions given in: 
https://gitlab.com/QEF/q-e/blob/master/upftools/how_to_fix_upf.md
               file Al.pbe-nl-kjpaw_psl.1.0.0.UPF: wavefunction(s)  3S 3P renormalized

     Subspace diagonalization in iterative solution of the eigenvalue problem:
     a serial algorithm will be used

 
     Parallelization info
     --------------------
     sticks:   dense  smooth     PW     G-vecs:    dense   smooth      PW
     Min           6       6      5                   56       56      41
     Max           7       7      6                   58       58      44
     Sum         137     137    109                 1141     1141     847
 


     bravais-lattice index     =            0
     lattice parameter (alat)  =       4.0400  a.u.
     unit-cell volume          =      65.9393 (a.u.)^3
     number of atoms/cell      =            4
     number of atomic types    =            1
     number of electrons       =        12.00
     number of Kohn-Sham states=           10
     kinetic-energy cutoff     =      65.0000  Ry
     charge density cutoff     =     100.0000  Ry
     convergence threshold     =      1.0E-06
     mixing beta               =       0.1000
     number of iterations used =           10  TF        mixing
     Exchange-correlation      = SLA PW PBX PBC ( 1  4  3  4 0 0)

     celldm(1)=   4.040000  celldm(2)=   0.000000  celldm(3)=   0.000000
     celldm(4)=   0.000000  celldm(5)=   0.000000  celldm(6)=   0.000000

     crystal axes: (cart. coord. in units of alat)
               a(1) = (   1.000000   0.000000   0.000000 )  
               a(2) = (   0.000000   1.000000   0.000000 )  
               a(3) = (   0.000000   0.000000   1.000000 )  

     reciprocal axes: (cart. coord. in units 2 pi/alat)
               b(1) = (  1.000000  0.000000  0.000000 )  
               b(2) = (  0.000000  1.000000  0.000000 )  
               b(3) = (  0.000000  0.000000  1.000000 )  


     PseudoPot. # 1 for Al read from file:
     /rds/homes/b/bxp912/pp/Al.pbe-nl-kjpaw_psl.1.0.0.UPF
     MD5 check sum: 339dbea23cf3ab9a065ad45c0f9085d7
     Pseudo is Projector augmented-wave + core cor, Zval =  3.0
     Generated using "atomic" code by A. Dal Corso v.5.1
     Shape of augmentation charge: PSQ
     Using radial grid of 1135 points,  4 beta functions with: 
                l(1) =   0
                l(2) =   0
                l(3) =   1
                l(4) =   1
     Q(r) pseudized with 0 coefficients 


     atomic species   valence    mass     pseudopotential
        Al             3.00    26.98200     Al( 1.00)

     No symmetry found



   Cartesian axes

     site n.     atom                  positions (alat units)
         1           Al  tau(   1) = (  -0.0001235   0.0000359   0.0002572  )
         2           Al  tau(   2) = (   0.5003009   0.4992819   0.0002658  )
         3           Al  tau(   3) = (   0.4996490   0.0001153   0.5011170  )
         4           Al  tau(   4) = (  -0.0000756   0.5008267   0.5006943  )

     number of k points=    32  Marzari-Vanderbilt smearing, width (Ry)=  0.0200
                       cart. coord. in units 2pi/alat
        k(    1) = (   0.1250000   0.1250000   0.1250000), wk =   0.0625000
        k(    2) = (   0.1250000   0.1250000   0.3750000), wk =   0.0625000
        k(    3) = (   0.1250000   0.3750000   0.3750000), wk =   0.0625000
        k(    4) = (   0.3750000   0.3750000   0.3750000), wk =   0.0625000
        k(    5) = (  -0.1250000  -0.1250000   0.1250000), wk =   0.0625000
        k(    6) = (  -0.1250000   0.1250000  -0.1250000), wk =   0.0625000
        k(    7) = (   0.1250000  -0.1250000  -0.1250000), wk =   0.0625000
        k(    8) = (  -0.1250000  -0.1250000   0.3750000), wk =   0.0625000
        k(    9) = (  -0.1250000   0.1250000  -0.3750000), wk =   0.0625000
        k(   10) = (   0.1250000  -0.1250000  -0.3750000), wk =   0.0625000
        k(   11) = (   0.3750000  -0.1250000   0.1250000), wk =   0.0625000
        k(   12) = (  -0.3750000  -0.1250000  -0.1250000), wk =   0.0625000
        k(   13) = (   0.3750000   0.1250000  -0.1250000), wk =   0.0625000
        k(   14) = (  -0.3750000   0.1250000   0.1250000), wk =   0.0625000
        k(   15) = (  -0.1250000   0.3750000   0.1250000), wk =   0.0625000
        k(   16) = (  -0.1250000  -0.3750000  -0.1250000), wk =   0.0625000
        k(   17) = (   0.1250000   0.3750000  -0.1250000), wk =   0.0625000
        k(   18) = (   0.1250000  -0.3750000   0.1250000), wk =   0.0625000
        k(   19) = (  -0.1250000  -0.3750000   0.3750000), wk =   0.0625000
        k(   20) = (  -0.1250000   0.3750000  -0.3750000), wk =   0.0625000
        k(   21) = (   0.1250000  -0.3750000  -0.3750000), wk =   0.0625000
        k(   22) = (   0.3750000   0.1250000  -0.3750000), wk =   0.0625000
        k(   23) = (  -0.3750000  -0.1250000  -0.3750000), wk =   0.0625000
        k(   24) = (   0.3750000  -0.1250000   0.3750000), wk =   0.0625000
        k(   25) = (  -0.3750000   0.1250000   0.3750000), wk =   0.0625000
        k(   26) = (   0.3750000  -0.3750000   0.1250000), wk =   0.0625000
        k(   27) = (  -0.3750000  -0.3750000  -0.1250000), wk =   0.0625000
        k(   28) = (   0.3750000   0.3750000  -0.1250000), wk =   0.0625000
        k(   29) = (  -0.3750000   0.3750000   0.1250000), wk =   0.0625000
        k(   30) = (  -0.3750000  -0.3750000   0.3750000), wk =   0.0625000
        k(   31) = (  -0.3750000   0.3750000  -0.3750000), wk =   0.0625000
        k(   32) = (   0.3750000  -0.3750000  -0.3750000), wk =   0.0625000

     Dense  grid:     1141 G-vectors     FFT dimensions: (  15,  15,  15)

     Estimated max dynamical RAM per process >       0.48 MB

     Estimated total dynamical RAM >       9.64 MB

     Initial potential from superposition of free atoms

     starting charge   11.99084, renormalised to   12.00000
     Starting wfcs are   16 randomized atomic wfcs
     Checking if some PAW data can be deallocated... 

     total cpu time spent up to now is        0.7 secs

     Self-consistent Calculation

     iteration #  1     ecut=    65.00 Ry     beta= 0.10
     Davidson diagonalization with overlap
     ethr =  1.00E-02,  avg # of iterations =  4.9

     total cpu time spent up to now is        0.9 secs

     total energy              =    -141.65268648 Ry
     Harris-Foulkes estimate   =    -141.80697228 Ry
     estimated scf accuracy    <       0.18116213 Ry

     iteration #  2     ecut=    65.00 Ry     beta= 0.10
     Davidson diagonalization with overlap
     ethr =  1.51E-03,  avg # of iterations =  1.0

     total cpu time spent up to now is        1.0 secs

     total energy              =    -141.16257587 Ry
     Harris-Foulkes estimate   =    -141.65525268 Ry
     estimated scf accuracy    <       0.15213018 Ry

     iteration #  3     ecut=    65.00 Ry     beta= 0.10
     Davidson diagonalization with overlap
     ethr =  1.27E-03,  avg # of iterations =  2.0

     total cpu time spent up to now is        1.1 secs

     total energy              =    -141.24365295 Ry
     Harris-Foulkes estimate   =    -141.25639568 Ry
     estimated scf accuracy    <       0.01575545 Ry

     iteration #  4     ecut=    65.00 Ry     beta= 0.10
     Davidson diagonalization with overlap
     ethr =  1.31E-04,  avg # of iterations =  1.0

     total cpu time spent up to now is        1.2 secs

     total energy              =    -141.24140022 Ry
     Harris-Foulkes estimate   =    -141.24410080 Ry
     estimated scf accuracy    <       0.01252158 Ry

     iteration #  5     ecut=    65.00 Ry     beta= 0.10
     Davidson diagonalization with overlap
     ethr =  1.04E-04,  avg # of iterations =  1.0

     total cpu time spent up to now is        1.3 secs

     total energy              =    -141.24342521 Ry
     Harris-Foulkes estimate   =    -141.24248774 Ry
     estimated scf accuracy    <       0.00073904 Ry

     iteration #  6     ecut=    65.00 Ry     beta= 0.10
     Davidson diagonalization with overlap
     ethr =  6.16E-06,  avg # of iterations =  2.8

     total cpu time spent up to now is        1.4 secs

     total energy              =    -141.24366913 Ry
     Harris-Foulkes estimate   =    -141.24368755 Ry
     estimated scf accuracy    <       0.00009877 Ry

     iteration #  7     ecut=    65.00 Ry     beta= 0.10
     Davidson diagonalization with overlap
     ethr =  8.23E-07,  avg # of iterations =  1.1

     total cpu time spent up to now is        1.5 secs

     total energy              =    -141.24271791 Ry
     Harris-Foulkes estimate   =    -141.24367032 Ry
     estimated scf accuracy    <       0.00007992 Ry

     iteration #  8     ecut=    65.00 Ry     beta= 0.10
     Davidson diagonalization with overlap
     ethr =  6.66E-07,  avg # of iterations =  2.5

     total cpu time spent up to now is        1.6 secs

     total energy              =    -141.24279812 Ry
     Harris-Foulkes estimate   =    -141.24277940 Ry
     estimated scf accuracy    <       0.00000960 Ry

     iteration #  9     ecut=    65.00 Ry     beta= 0.10
     Davidson diagonalization with overlap
     ethr =  8.00E-08,  avg # of iterations =  1.0

     total cpu time spent up to now is        1.7 secs

     total energy              =    -141.24270123 Ry
     Harris-Foulkes estimate   =    -141.24279848 Ry
     estimated scf accuracy    <       0.00000753 Ry

     iteration # 10     ecut=    65.00 Ry     beta= 0.10
     Davidson diagonalization with overlap
     ethr =  6.27E-08,  avg # of iterations =  3.0

     total cpu time spent up to now is        1.8 secs

     total energy              =    -141.24271156 Ry
     Harris-Foulkes estimate   =    -141.24271163 Ry
     estimated scf accuracy    <       0.00000106 Ry

     iteration # 11     ecut=    65.00 Ry     beta= 0.10
     Davidson diagonalization with overlap
     ethr =  8.80E-09,  avg # of iterations =  1.1

     total cpu time spent up to now is        1.9 secs

     total energy              =    -141.24271119 Ry
     Harris-Foulkes estimate   =    -141.24271157 Ry
     estimated scf accuracy    <       0.00000104 Ry

     iteration # 12     ecut=    65.00 Ry     beta= 0.10
     Davidson diagonalization with overlap
     ethr =  8.63E-09,  avg # of iterations =  1.0

     total cpu time spent up to now is        2.0 secs

     End of self-consistent calculation

          k = 0.1250 0.1250 0.1250 (   585 PWs)   bands (ev):

    30.9153  41.4387  41.4566  41.4765  52.4297  52.4500  52.4701  54.9330
    54.9428  54.9529

          k = 0.1250 0.1250 0.3750 (   579 PWs)   bands (ev):

    34.4082  39.0147  43.9436  43.9625  51.8125  51.8298  54.8788  54.8874
    55.6930  61.5181

          k = 0.1250 0.3750 0.3750 (   589 PWs)   bands (ev):

    37.4234  41.6584  41.6953  44.5505  50.4950  52.9076  52.9567  57.0474
    57.5694  60.7359

          k = 0.3750 0.3750 0.3750 (   591 PWs)   bands (ev):

    39.8890  43.9779  44.0154  44.0536  47.7761  47.8175  47.8591  51.6515
    66.9746  66.9799

          k =-0.1250-0.1250 0.1250 (   585 PWs)   bands (ev):

    30.9153  41.4425  41.4569  41.4724  52.4340  52.4499  52.4659  54.9351
    54.9429  54.9508

          k =-0.1250 0.1250-0.1250 (   585 PWs)   bands (ev):

    30.9153  41.4460  41.4576  41.4681  52.4381  52.4500  52.4617  54.9371
    54.9429  54.9488

          k = 0.1250-0.1250-0.1250 (   585 PWs)   bands (ev):

    30.9153  41.4442  41.4571  41.4704  52.4359  52.4500  52.4639  54.9360
    54.9429  54.9498

          k =-0.1250-0.1250 0.3750 (   579 PWs)   bands (ev):

    34.4082  39.0148  43.9436  43.9624  51.8126  51.8298  54.8788  54.8875
    55.6927  61.5181

          k =-0.1250 0.1250-0.3750 (   579 PWs)   bands (ev):

    34.4082  39.0148  43.9487  43.9573  51.8172  51.8251  54.8811  54.8851
    55.6928  61.5180

          k = 0.1250-0.1250-0.3750 (   579 PWs)   bands (ev):

    34.4082  39.0147  43.9487  43.9574  51.8172  51.8251  54.8811  54.8851
    55.6930  61.5177

          k = 0.3750-0.1250 0.1250 (   579 PWs)   bands (ev):

    34.4082  39.0146  43.9487  43.9574  51.8170  51.8250  54.8813  54.8853
    55.6930  61.5181

          k =-0.3750-0.1250-0.1250 (   579 PWs)   bands (ev):

    34.4082  39.0146  43.9451  43.9611  51.8139  51.8286  54.8791  54.8865
    55.6936  61.5182

          k = 0.3750 0.1250-0.1250 (   579 PWs)   bands (ev):

    34.4082  39.0146  43.9487  43.9575  51.8170  51.8250  54.8813  54.8853
    55.6930  61.5181

          k =-0.3750 0.1250 0.1250 (   579 PWs)   bands (ev):

    34.4082  39.0146  43.9450  43.9611  51.8140  51.8287  54.8791  54.8865
    55.6932  61.5181

          k =-0.1250 0.3750 0.1250 (   579 PWs)   bands (ev):

    34.4082  39.0146  43.9520  43.9544  51.8201  51.8223  54.8824  54.8836
    55.6929  61.5181

          k =-0.1250-0.3750-0.1250 (   579 PWs)   bands (ev):

    34.4082  39.0145  43.9485  43.9579  51.8168  51.8254  54.8809  54.8853
    55.6930  61.5182

          k = 0.1250 0.3750-0.1250 (   579 PWs)   bands (ev):

    34.4082  39.0145  43.9520  43.9544  51.8200  51.8223  54.8823  54.8835
    55.6932  61.5181

          k = 0.1250-0.3750 0.1250 (   579 PWs)   bands (ev):

    34.4082  39.0146  43.9485  43.9579  51.8168  51.8254  54.8809  54.8853
    55.6928  61.5182

          k =-0.1250-0.3750 0.3750 (   589 PWs)   bands (ev):

    37.4234  41.6668  41.6869  44.5503  50.4952  52.9187  52.9455  57.0467
    57.5703  60.7378

          k =-0.1250 0.3750-0.3750 (   589 PWs)   bands (ev):

    37.4234  41.6668  41.6870  44.5503  50.4951  52.9186  52.9454  57.0464
    57.5708  60.7351

          k = 0.1250-0.3750-0.3750 (   589 PWs)   bands (ev):

    37.4234  41.6584  41.6953  44.5505  50.4950  52.9076  52.9567  57.0470
    57.5696  60.7333

          k = 0.3750 0.1250-0.3750 (   589 PWs)   bands (ev):

    37.4234  41.6740  41.6796  44.5504  50.4950  52.9285  52.9359  57.0474
    57.5696  60.7383

          k =-0.3750-0.1250-0.3750 (   589 PWs)   bands (ev):

    37.4234  41.6660  41.6877  44.5502  50.4953  52.9178  52.9467  57.0476
    57.5692  60.7361

          k = 0.3750-0.1250 0.3750 (   589 PWs)   bands (ev):

    37.4234  41.6660  41.6877  44.5503  50.4951  52.9177  52.9466  57.0478
    57.5693  60.7355

          k =-0.3750 0.1250 0.3750 (   589 PWs)   bands (ev):

    37.4234  41.6740  41.6796  44.5503  50.4951  52.9286  52.9360  57.0471
    57.5696  60.7384

          k = 0.3750-0.3750 0.1250 (   589 PWs)   bands (ev):

    37.4235  41.6669  41.6868  44.5504  50.4948  52.9188  52.9453  57.0476
    57.5694  60.7379

          k =-0.3750-0.3750-0.1250 (   589 PWs)   bands (ev):

    37.4235  41.6551  41.6985  44.5503  50.4952  52.9032  52.9610  57.0456
    57.5713  60.7316

          k = 0.3750 0.3750-0.1250 (   589 PWs)   bands (ev):

    37.4235  41.6552  41.6985  44.5503  50.4950  52.9031  52.9609  57.0477
    57.5693  60.7330

          k =-0.3750 0.3750 0.1250 (   589 PWs)   bands (ev):

    37.4235  41.6669  41.6868  44.5504  50.4952  52.9190  52.9454  57.0430
    57.5739  60.7350

          k =-0.3750-0.3750 0.3750 (   591 PWs)   bands (ev):

    39.8889  43.9858  44.0156  44.0456  47.7848  47.8175  47.8504  51.6516
    66.9741  66.9789

          k =-0.3750 0.3750-0.3750 (   591 PWs)   bands (ev):

    39.8889  43.9934  44.0158  44.0377  47.7933  47.8176  47.8418  51.6517
    66.9751  66.9784

          k = 0.3750-0.3750-0.3750 (   591 PWs)   bands (ev):

    39.8889  43.9894  44.0156  44.0419  47.7889  47.8176  47.8465  51.6515
    66.9754  66.9780

     the Fermi energy is    52.6618 ev

!    total energy              =    -141.24271118 Ry
     Harris-Foulkes estimate   =    -141.24271122 Ry
     estimated scf accuracy    <       0.00000068 Ry

     total all-electron energy =     -1925.813839 Ry

     The total energy is the sum of the following terms:

     one-electron contribution =      58.67270937 Ry
     hartree contribution      =       0.21194155 Ry
     xc contribution           =     -17.28524531 Ry
     ewald contribution        =     -40.85514764 Ry
     one-center paw contrib.   =    -141.98634757 Ry
     smearing contrib. (-TS)   =      -0.00062158 Ry

     convergence has been achieved in  12 iterations

     Forces acting on atoms (cartesian axes, Ry/au):

     atom    1 type  1   force =     0.00200874   -0.00038303    0.01642642
     atom    2 type  1   force =    -0.00323208    0.00370142    0.01639942
     atom    3 type  1   force =    -0.00057033   -0.00069992   -0.01727824
     atom    4 type  1   force =     0.00179367   -0.00261848   -0.01554760

     Total force =     0.033440     Total SCF correction =     0.000005


     Computing stress (Cartesian axis) and pressure

          total   stress  (Ry/bohr**3)                   (kbar)     P=59671.89
   0.40564669   0.00000107   0.00000086      59672.68      0.16      0.13
   0.00000107   0.40563561  -0.00000123          0.16  59671.05     -0.18
   0.00000086  -0.00000123   0.40564172          0.13     -0.18  59671.95


     Writing output data file fe_scf_fcc_2.save/
 
     init_run     :      0.10s CPU      0.14s WALL (       1 calls)
     electrons    :      1.20s CPU      1.33s WALL (       1 calls)
     forces       :      0.01s CPU      0.01s WALL (       1 calls)
     stress       :      0.01s CPU      0.01s WALL (       1 calls)

     Called by init_run:
     wfcinit      :      0.04s CPU      0.05s WALL (       1 calls)
     potinit      :      0.01s CPU      0.02s WALL (       1 calls)
     hinit0       :      0.04s CPU      0.07s WALL (       1 calls)

     Called by electrons:
     c_bands      :      0.89s CPU      0.98s WALL (      12 calls)
     sum_band     :      0.14s CPU      0.16s WALL (      12 calls)
     v_of_rho     :      0.01s CPU      0.01s WALL (      13 calls)
     newd         :      0.00s CPU      0.00s WALL (      13 calls)
     PAW_pot      :      0.15s CPU      0.17s WALL (      13 calls)
     mix_rho      :      0.00s CPU      0.00s WALL (      12 calls)

     Called by c_bands:
     init_us_2    :      0.01s CPU      0.01s WALL (     864 calls)
     cegterg      :      0.86s CPU      0.95s WALL (     384 calls)

     Called by sum_band:
     sum_band:bec :      0.00s CPU      0.00s WALL (     384 calls)
     addusdens    :      0.00s CPU      0.00s WALL (      12 calls)

     Called by *egterg:
     h_psi        :      0.60s CPU      0.67s WALL (    1130 calls)
     s_psi        :      0.01s CPU      0.01s WALL (    1130 calls)
     g_psi        :      0.00s CPU      0.00s WALL (     714 calls)
     cdiaghg      :      0.18s CPU      0.20s WALL (    1098 calls)

     Called by h_psi:
     h_psi:pot    :      0.60s CPU      0.67s WALL (    1130 calls)
     h_psi:calbec :      0.06s CPU      0.06s WALL (    1130 calls)
     vloc_psi     :      0.53s CPU      0.59s WALL (    1130 calls)
     add_vuspsi   :      0.01s CPU      0.01s WALL (    1130 calls)

     General routines
     calbec       :      0.08s CPU      0.09s WALL (    1674 calls)
     fft          :      0.04s CPU      0.07s WALL (     169 calls)
     ffts         :      0.00s CPU      0.00s WALL (      12 calls)
     fftw         :      0.60s CPU      0.67s WALL (   23764 calls)
 
     Parallel routines
     fft_scatt_xy :      0.04s CPU      0.04s WALL (   23945 calls)
     fft_scatt_yz :      0.50s CPU      0.56s WALL (   23945 calls)
 
     PWSCF        :     1.89s CPU         2.38s WALL

 
   This run was terminated on:  19: 3:10  22Oct2019            

=------------------------------------------------------------------------------=
   JOB DONE.
=------------------------------------------------------------------------------=
