
     Program PWSCF v.6.3 starts on 19Oct2019 at 18: 7:42 

     This program is part of the open-source Quantum ESPRESSO suite
     for quantum simulation of materials; please cite
         "P. Giannozzi et al., J. Phys.:Condens. Matter 21 395502 (2009);
         "P. Giannozzi et al., J. Phys.:Condens. Matter 29 465901 (2017);
          URL http://www.quantum-espresso.org", 
     in publications or presentations arising from this work. More details at
     http://www.quantum-espresso.org/quote

     Parallel version (MPI), running on     1 processors

     MPI processes distributed on     1 nodes
     Reading input from /cloud/Code/python/py_pwscf_converge/src/example/wd/runpwscf/file_10004.in
Warning: card &IONS ignored
Warning: card ION_DYNAMICS = 'BFGS', ignored
Warning: card / ignored
Warning: card &CELL ignored
Warning: card CELL_DYNAMICS = 'BFGS', ignored
Warning: card CELL_FACTOR = 2.0, ignored
Warning: card PRESS = 0.0, ignored
Warning: card / ignored

     Current dimensions of program PWSCF are:
     Max number of different atomic species (ntypx) = 10
     Max number of k-points (npk) =  40000
     Max angular momentum in pseudopotentials (lmaxx) =  3
               file Al.pbe-nl-kjpaw_psl.1.0.0.UPF: wavefunction(s)  3S 3P renormalized

     Subspace diagonalization in iterative solution of the eigenvalue problem:
     a serial algorithm will be used


     G-vector sticks info
     --------------------
     sticks:   dense  smooth     PW     G-vecs:    dense   smooth      PW
     Sum         241     241     69                 2721     2721     485



     bravais-lattice index     =            0
     lattice parameter (alat)  =       4.0400  a.u.
     unit-cell volume          =      65.9393 (a.u.)^3
     number of atoms/cell      =            4
     number of atomic types    =            1
     number of electrons       =        12.00
     number of Kohn-Sham states=           10
     kinetic-energy cutoff     =      45.0000  Ry
     charge density cutoff     =     180.0000  Ry
     convergence threshold     =      1.0E-06
     mixing beta               =       0.1000
     number of iterations used =           10  TF        mixing
     Exchange-correlation      = SLA PW PBX PBC ( 1  4  3  4 0 0)

     celldm(1)=   4.040000  celldm(2)=   0.000000  celldm(3)=   0.000000
     celldm(4)=   0.000000  celldm(5)=   0.000000  celldm(6)=   0.000000

     crystal axes: (cart. coord. in units of alat)
               a(1) = (   1.000000   0.000000   0.000000 )  
               a(2) = (   0.000000   1.000000   0.000000 )  
               a(3) = (   0.000000   0.000000   1.000000 )  

     reciprocal axes: (cart. coord. in units 2 pi/alat)
               b(1) = (  1.000000  0.000000  0.000000 )  
               b(2) = (  0.000000  1.000000  0.000000 )  
               b(3) = (  0.000000  0.000000  1.000000 )  


     PseudoPot. # 1 for Al read from file:
     /opt/pp/Al.pbe-nl-kjpaw_psl.1.0.0.UPF
     MD5 check sum: 1b67f78b73fe58c7924490f171ce8a1e
     Pseudo is Projector augmented-wave + core cor, Zval =  3.0
     Generated using "atomic" code by A. Dal Corso v.6.3
     Shape of augmentation charge: PSQ
     Using radial grid of 1135 points,  4 beta functions with: 
                l(1) =   0
                l(2) =   0
                l(3) =   1
                l(4) =   1
     Q(r) pseudized with 0 coefficients 


     atomic species   valence    mass     pseudopotential
        Al             3.00    26.98200     Al( 1.00)

     No symmetry found



   Cartesian axes

     site n.     atom                  positions (alat units)
         1           Al  tau(   1) = (  -0.0001235   0.0000359   0.0002572  )
         2           Al  tau(   2) = (   0.5003009   0.4992819   0.0002658  )
         3           Al  tau(   3) = (   0.4996490   0.0001153   0.5011170  )
         4           Al  tau(   4) = (  -0.0000756   0.5008267   0.5006943  )

     number of k points=    32  Marzari-Vanderbilt smearing, width (Ry)=  0.0200
                       cart. coord. in units 2pi/alat
        k(    1) = (   0.1250000   0.1250000   0.1250000), wk =   0.0625000
        k(    2) = (   0.1250000   0.1250000   0.3750000), wk =   0.0625000
        k(    3) = (   0.1250000   0.3750000   0.3750000), wk =   0.0625000
        k(    4) = (   0.3750000   0.3750000   0.3750000), wk =   0.0625000
        k(    5) = (  -0.1250000  -0.1250000   0.1250000), wk =   0.0625000
        k(    6) = (  -0.1250000   0.1250000  -0.1250000), wk =   0.0625000
        k(    7) = (   0.1250000  -0.1250000  -0.1250000), wk =   0.0625000
        k(    8) = (  -0.1250000  -0.1250000   0.3750000), wk =   0.0625000
        k(    9) = (  -0.1250000   0.1250000  -0.3750000), wk =   0.0625000
        k(   10) = (   0.1250000  -0.1250000  -0.3750000), wk =   0.0625000
        k(   11) = (   0.3750000  -0.1250000   0.1250000), wk =   0.0625000
        k(   12) = (  -0.3750000  -0.1250000  -0.1250000), wk =   0.0625000
        k(   13) = (   0.3750000   0.1250000  -0.1250000), wk =   0.0625000
        k(   14) = (  -0.3750000   0.1250000   0.1250000), wk =   0.0625000
        k(   15) = (  -0.1250000   0.3750000   0.1250000), wk =   0.0625000
        k(   16) = (  -0.1250000  -0.3750000  -0.1250000), wk =   0.0625000
        k(   17) = (   0.1250000   0.3750000  -0.1250000), wk =   0.0625000
        k(   18) = (   0.1250000  -0.3750000   0.1250000), wk =   0.0625000
        k(   19) = (  -0.1250000  -0.3750000   0.3750000), wk =   0.0625000
        k(   20) = (  -0.1250000   0.3750000  -0.3750000), wk =   0.0625000
        k(   21) = (   0.1250000  -0.3750000  -0.3750000), wk =   0.0625000
        k(   22) = (   0.3750000   0.1250000  -0.3750000), wk =   0.0625000
        k(   23) = (  -0.3750000  -0.1250000  -0.3750000), wk =   0.0625000
        k(   24) = (   0.3750000  -0.1250000   0.3750000), wk =   0.0625000
        k(   25) = (  -0.3750000   0.1250000   0.3750000), wk =   0.0625000
        k(   26) = (   0.3750000  -0.3750000   0.1250000), wk =   0.0625000
        k(   27) = (  -0.3750000  -0.3750000  -0.1250000), wk =   0.0625000
        k(   28) = (   0.3750000   0.3750000  -0.1250000), wk =   0.0625000
        k(   29) = (  -0.3750000   0.3750000   0.1250000), wk =   0.0625000
        k(   30) = (  -0.3750000  -0.3750000   0.3750000), wk =   0.0625000
        k(   31) = (  -0.3750000   0.3750000  -0.3750000), wk =   0.0625000
        k(   32) = (   0.3750000  -0.3750000  -0.3750000), wk =   0.0625000

     Dense  grid:     2721 G-vectors     FFT dimensions: (  18,  18,  18)

     Estimated max dynamical RAM per process >       5.98 MB

     Initial potential from superposition of free atoms

     starting charge   11.99084, renormalised to   12.00000
     Starting wfcs are   16 randomized atomic wfcs
     Checking if some PAW data can be deallocated... 

     total cpu time spent up to now is        1.2 secs

     Self-consistent Calculation

     iteration #  1     ecut=    45.00 Ry     beta= 0.10
     Davidson diagonalization with overlap
     ethr =  1.00E-02,  avg # of iterations =  4.9

     total cpu time spent up to now is        2.0 secs

     total energy              =    -141.65034328 Ry
     Harris-Foulkes estimate   =    -141.80477665 Ry
     estimated scf accuracy    <       0.18112598 Ry

     iteration #  2     ecut=    45.00 Ry     beta= 0.10
     Davidson diagonalization with overlap
     ethr =  1.51E-03,  avg # of iterations =  1.0

     total cpu time spent up to now is        2.5 secs

     total energy              =    -141.16044512 Ry
     Harris-Foulkes estimate   =    -141.65389564 Ry
     estimated scf accuracy    <       0.15187286 Ry

     iteration #  3     ecut=    45.00 Ry     beta= 0.10
     Davidson diagonalization with overlap
     ethr =  1.27E-03,  avg # of iterations =  2.0

     total cpu time spent up to now is        3.1 secs

     total energy              =    -141.23772437 Ry
     Harris-Foulkes estimate   =    -141.24765255 Ry
     estimated scf accuracy    <       0.01481030 Ry

     iteration #  4     ecut=    45.00 Ry     beta= 0.10
     Davidson diagonalization with overlap
     ethr =  1.23E-04,  avg # of iterations =  1.0

     total cpu time spent up to now is        3.7 secs

     total energy              =    -141.24055843 Ry
     Harris-Foulkes estimate   =    -141.23825307 Ry
     estimated scf accuracy    <       0.01148739 Ry

     iteration #  5     ecut=    45.00 Ry     beta= 0.10
     Davidson diagonalization with overlap
     ethr =  9.57E-05,  avg # of iterations =  1.6

     total cpu time spent up to now is        4.2 secs

     total energy              =    -141.24246279 Ry
     Harris-Foulkes estimate   =    -141.24171367 Ry
     estimated scf accuracy    <       0.00054190 Ry

     iteration #  6     ecut=    45.00 Ry     beta= 0.10
     Davidson diagonalization with overlap
     ethr =  4.52E-06,  avg # of iterations =  2.6

     total cpu time spent up to now is        4.8 secs

     total energy              =    -141.24265508 Ry
     Harris-Foulkes estimate   =    -141.24263730 Ry
     estimated scf accuracy    <       0.00011741 Ry

     iteration #  7     ecut=    45.00 Ry     beta= 0.10
     Davidson diagonalization with overlap
     ethr =  9.78E-07,  avg # of iterations =  1.1

     total cpu time spent up to now is        5.3 secs

     total energy              =    -141.24189743 Ry
     Harris-Foulkes estimate   =    -141.24265712 Ry
     estimated scf accuracy    <       0.00010478 Ry

     iteration #  8     ecut=    45.00 Ry     beta= 0.10
     Davidson diagonalization with overlap
     ethr =  8.73E-07,  avg # of iterations =  2.0

     total cpu time spent up to now is        7.0 secs

     total energy              =    -141.24194606 Ry
     Harris-Foulkes estimate   =    -141.24194390 Ry
     estimated scf accuracy    <       0.00001123 Ry

     iteration #  9     ecut=    45.00 Ry     beta= 0.10
     Davidson diagonalization with overlap
     ethr =  9.36E-08,  avg # of iterations =  1.2

     total cpu time spent up to now is        8.6 secs

     total energy              =    -141.24184801 Ry
     Harris-Foulkes estimate   =    -141.24194646 Ry
     estimated scf accuracy    <       0.00000566 Ry

     iteration # 10     ecut=    45.00 Ry     beta= 0.10
     Davidson diagonalization with overlap
     ethr =  4.72E-08,  avg # of iterations =  3.0

     total cpu time spent up to now is       10.7 secs

     total energy              =    -141.24185712 Ry
     Harris-Foulkes estimate   =    -141.24185712 Ry
     estimated scf accuracy    <       0.00000132 Ry

     iteration # 11     ecut=    45.00 Ry     beta= 0.10
     Davidson diagonalization with overlap
     ethr =  1.10E-08,  avg # of iterations =  1.0

     total cpu time spent up to now is       12.3 secs

     total energy              =    -141.24185761 Ry
     Harris-Foulkes estimate   =    -141.24185713 Ry
     estimated scf accuracy    <       0.00000128 Ry

     iteration # 12     ecut=    45.00 Ry     beta= 0.10
     Davidson diagonalization with overlap
     ethr =  1.06E-08,  avg # of iterations =  1.1

     total cpu time spent up to now is       14.0 secs

     End of self-consistent calculation

          k = 0.1250 0.1250 0.1250 (   338 PWs)   bands (ev):

    30.9130  41.4378  41.4569  41.4756  52.4314  52.4517  52.4718  54.9306
    54.9405  54.9505

          k = 0.1250 0.1250 0.3750 (   338 PWs)   bands (ev):

    34.4054  39.0122  43.9425  43.9613  51.8123  51.8296  54.8781  54.8868
    55.6947  61.5185

          k = 0.1250 0.3750 0.3750 (   340 PWs)   bands (ev):

    37.4206  41.6557  41.6926  44.5480  50.4950  52.9077  52.9570  57.0484
    57.5698  60.7337

          k = 0.3750 0.3750 0.3750 (   326 PWs)   bands (ev):

    39.8866  43.9754  44.0133  44.0511  47.7754  47.8169  47.8584  51.6515
    66.9747  66.9803

          k =-0.1250-0.1250 0.1250 (   338 PWs)   bands (ev):

    30.9130  41.4418  41.4568  41.4717  52.4357  52.4516  52.4676  54.9327
    54.9406  54.9484

          k =-0.1250 0.1250-0.1250 (   338 PWs)   bands (ev):

    30.9130  41.4457  41.4568  41.4678  52.4398  52.4517  52.4634  54.9348
    54.9405  54.9464

          k = 0.1250-0.1250-0.1250 (   338 PWs)   bands (ev):

    30.9130  41.4436  41.4569  41.4699  52.4376  52.4517  52.4656  54.9337
    54.9405  54.9475

          k =-0.1250-0.1250 0.3750 (   338 PWs)   bands (ev):

    34.4054  39.0122  43.9425  43.9613  51.8123  51.8296  54.8782  54.8868
    55.6944  61.5185

          k =-0.1250 0.1250-0.3750 (   338 PWs)   bands (ev):

    34.4054  39.0122  43.9476  43.9562  51.8170  51.8249  54.8805  54.8845
    55.6945  61.5184

          k = 0.1250-0.1250-0.3750 (   338 PWs)   bands (ev):

    34.4054  39.0122  43.9476  43.9563  51.8170  51.8249  54.8805  54.8845
    55.6947  61.5179

          k = 0.3750-0.1250 0.1250 (   338 PWs)   bands (ev):

    34.4055  39.0121  43.9476  43.9563  51.8168  51.8248  54.8806  54.8847
    55.6947  61.5183

          k =-0.3750-0.1250-0.1250 (   338 PWs)   bands (ev):

    34.4055  39.0121  43.9439  43.9600  51.8137  51.8284  54.8784  54.8858
    55.6953  61.5185

          k = 0.3750 0.1250-0.1250 (   338 PWs)   bands (ev):

    34.4055  39.0121  43.9476  43.9563  51.8167  51.8248  54.8806  54.8847
    55.6947  61.5184

          k =-0.3750 0.1250 0.1250 (   338 PWs)   bands (ev):

    34.4055  39.0121  43.9439  43.9599  51.8137  51.8284  54.8785  54.8859
    55.6949  61.5185

          k =-0.1250 0.3750 0.1250 (   338 PWs)   bands (ev):

    34.4055  39.0120  43.9509  43.9533  51.8199  51.8221  54.8818  54.8829
    55.6946  61.5186

          k =-0.1250-0.3750-0.1250 (   338 PWs)   bands (ev):

    34.4055  39.0120  43.9474  43.9568  51.8165  51.8252  54.8803  54.8846
    55.6947  61.5185

          k = 0.1250 0.3750-0.1250 (   338 PWs)   bands (ev):

    34.4055  39.0120  43.9509  43.9533  51.8198  51.8220  54.8817  54.8829
    55.6950  61.5184

          k = 0.1250-0.3750 0.1250 (   338 PWs)   bands (ev):

    34.4055  39.0121  43.9474  43.9568  51.8166  51.8252  54.8803  54.8846
    55.6946  61.5185

          k =-0.1250-0.3750 0.3750 (   340 PWs)   bands (ev):

    37.4206  41.6641  41.6843  44.5479  50.4951  52.9189  52.9457  57.0478
    57.5707  60.7365

          k =-0.1250 0.3750-0.3750 (   340 PWs)   bands (ev):

    37.4206  41.6641  41.6843  44.5479  50.4951  52.9188  52.9456  57.0474
    57.5712  60.7366

          k = 0.1250-0.3750-0.3750 (   340 PWs)   bands (ev):

    37.4206  41.6557  41.6926  44.5480  50.4950  52.9077  52.9570  57.0480
    57.5700  60.7350

          k = 0.3750 0.1250-0.3750 (   340 PWs)   bands (ev):

    37.4206  41.6713  41.6769  44.5479  50.4949  52.9287  52.9361  57.0485
    57.5700  60.7384

          k =-0.3750-0.1250-0.3750 (   340 PWs)   bands (ev):

    37.4206  41.6633  41.6850  44.5478  50.4952  52.9180  52.9469  57.0486
    57.5696  60.7416

          k = 0.3750-0.1250 0.3750 (   340 PWs)   bands (ev):

    37.4206  41.6633  41.6850  44.5478  50.4950  52.9179  52.9468  57.0488
    57.5697  60.7365

          k =-0.3750 0.1250 0.3750 (   340 PWs)   bands (ev):

    37.4206  41.6713  41.6769  44.5479  50.4951  52.9288  52.9362  57.0481
    57.5700  60.7386

          k = 0.3750-0.3750 0.1250 (   340 PWs)   bands (ev):

    37.4206  41.6642  41.6841  44.5480  50.4948  52.9190  52.9455  57.0487
    57.5698  60.7416

          k =-0.3750-0.3750-0.1250 (   340 PWs)   bands (ev):

    37.4207  41.6524  41.6959  44.5478  50.4952  52.9034  52.9612  57.0466
    57.5717  60.7325

          k = 0.3750 0.3750-0.1250 (   340 PWs)   bands (ev):

    37.4207  41.6525  41.6959  44.5479  50.4950  52.9033  52.9611  57.0487
    57.5697  60.7343

          k =-0.3750 0.3750 0.1250 (   340 PWs)   bands (ev):

    37.4206  41.6642  41.6841  44.5479  50.4951  52.9191  52.9456  57.0440
    57.5743  60.7370

          k =-0.3750-0.3750 0.3750 (   326 PWs)   bands (ev):

    39.8866  43.9833  44.0134  44.0431  47.7841  47.8168  47.8497  51.6516
    66.9754  66.9781

          k =-0.3750 0.3750-0.3750 (   326 PWs)   bands (ev):

    39.8865  43.9910  44.0133  44.0354  47.7926  47.8169  47.8412  51.6517
    66.9768  66.9786

          k = 0.3750-0.3750-0.3750 (   326 PWs)   bands (ev):

    39.8865  43.9869  44.0132  44.0395  47.7882  47.8169  47.8458  51.6515
    66.9770  66.9794

     the Fermi energy is    52.6630 ev

!    total energy              =    -141.24185687 Ry
     Harris-Foulkes estimate   =    -141.24185769 Ry
     estimated scf accuracy    <       0.00000054 Ry

     total all-electron energy =     -1925.812979 Ry

     The total energy is the sum of the following terms:

     one-electron contribution =      58.67443135 Ry
     hartree contribution      =       0.21203314 Ry
     xc contribution           =     -17.28573459 Ry
     ewald contribution        =     -40.85514779 Ry
     one-center paw contrib.   =    -141.98679310 Ry
     smearing contrib. (-TS)   =      -0.00064588 Ry

     convergence has been achieved in  12 iterations

     Forces acting on atoms (cartesian axes, Ry/au):

     atom    1 type  1   force =     0.00200392   -0.00038763    0.01643050
     atom    2 type  1   force =    -0.00323327    0.00367317    0.01640523
     atom    3 type  1   force =    -0.00058240   -0.00069095   -0.01728481
     atom    4 type  1   force =     0.00181175   -0.00259459   -0.01555092

     Total force =     0.033446     Total SCF correction =     0.000006


     Computing stress (Cartesian axis) and pressure

          total   stress  (Ry/bohr**3)                   (kbar)     P=59677.02
   0.40568163   0.00000126   0.00000075      59677.82      0.19      0.11
   0.00000126   0.40567034  -0.00000096          0.19  59676.16     -0.14
   0.00000075  -0.00000096   0.40567658          0.11     -0.14  59677.07


     Writing output data file fe_scf_fcc_2.save/

     init_run     :      0.68s CPU      0.70s WALL (       1 calls)
     electrons    :     12.36s CPU     12.82s WALL (       1 calls)
     forces       :      0.13s CPU      0.13s WALL (       1 calls)
     stress       :      0.35s CPU      0.36s WALL (       1 calls)

     Called by init_run:
     wfcinit      :      0.19s CPU      0.19s WALL (       1 calls)
     potinit      :      0.26s CPU      0.28s WALL (       1 calls)
     hinit0       :      0.22s CPU      0.23s WALL (       1 calls)

     Called by electrons:
     c_bands      :      5.43s CPU      5.56s WALL (      12 calls)
     sum_band     :      1.24s CPU      1.26s WALL (      12 calls)
     v_of_rho     :      0.11s CPU      0.11s WALL (      13 calls)
     newd         :      0.09s CPU      0.11s WALL (      13 calls)
     PAW_pot      :      5.74s CPU      6.03s WALL (      13 calls)
     mix_rho      :      0.01s CPU      0.02s WALL (      12 calls)

     Called by c_bands:
     init_us_2    :      0.18s CPU      0.20s WALL (     864 calls)
     cegterg      :      5.16s CPU      5.27s WALL (     384 calls)

     Called by sum_band:
     sum_band:bec :      0.00s CPU      0.01s WALL (     384 calls)
     addusdens    :      0.06s CPU      0.06s WALL (      12 calls)

     Called by *egterg:
     h_psi        :      4.32s CPU      4.46s WALL (    1131 calls)
     s_psi        :      0.16s CPU      0.16s WALL (    1131 calls)
     g_psi        :      0.04s CPU      0.02s WALL (     715 calls)
     cdiaghg      :      0.35s CPU      0.35s WALL (    1099 calls)

     Called by h_psi:
     h_psi:pot    :      4.30s CPU      4.44s WALL (    1131 calls)
     h_psi:calbec :      0.19s CPU      0.18s WALL (    1131 calls)
     vloc_psi     :      3.94s CPU      4.08s WALL (    1131 calls)
     add_vuspsi   :      0.17s CPU      0.17s WALL (    1131 calls)

     General routines
     calbec       :      0.31s CPU      0.30s WALL (    1675 calls)
     fft          :      0.05s CPU      0.07s WALL (     169 calls)
     ffts         :      0.00s CPU      0.00s WALL (      12 calls)
     fftw         :      4.59s CPU      4.68s WALL (   23644 calls)

     Parallel routines

     PWSCF        :    14.04s CPU        14.57s WALL


   This run was terminated on:  18: 7:56  19Oct2019            

=------------------------------------------------------------------------------=
   JOB DONE.
=------------------------------------------------------------------------------=
