
     Program PWSCF v.6.3 starts on 20Oct2019 at  2:46:40 

     This program is part of the open-source Quantum ESPRESSO suite
     for quantum simulation of materials; please cite
         "P. Giannozzi et al., J. Phys.:Condens. Matter 21 395502 (2009);
         "P. Giannozzi et al., J. Phys.:Condens. Matter 29 465901 (2017);
          URL http://www.quantum-espresso.org", 
     in publications or presentations arising from this work. More details at
     http://www.quantum-espresso.org/quote

     Parallel version (MPI), running on     1 processors

     MPI processes distributed on     1 nodes
     Reading input from /cloud/Code/python/py_pwscf_converge/src/example/wd/runpwscf/file_10065.in
Warning: card &IONS ignored
Warning: card ION_DYNAMICS = 'BFGS', ignored
Warning: card / ignored
Warning: card &CELL ignored
Warning: card CELL_DYNAMICS = 'BFGS', ignored
Warning: card CELL_FACTOR = 2.0, ignored
Warning: card PRESS = 0.0, ignored
Warning: card / ignored

     Current dimensions of program PWSCF are:
     Max number of different atomic species (ntypx) = 10
     Max number of k-points (npk) =  40000
     Max angular momentum in pseudopotentials (lmaxx) =  3
               file Al.pbe-nl-kjpaw_psl.1.0.0.UPF: wavefunction(s)  3S 3P renormalized

     Subspace diagonalization in iterative solution of the eigenvalue problem:
     a serial algorithm will be used


     G-vector sticks info
     --------------------
     sticks:   dense  smooth     PW     G-vecs:    dense   smooth      PW
     Sum         241     137     45                 2721     1141     251



     bravais-lattice index     =            0
     lattice parameter (alat)  =       4.0400  a.u.
     unit-cell volume          =      65.9393 (a.u.)^3
     number of atoms/cell      =            4
     number of atomic types    =            1
     number of electrons       =        12.00
     number of Kohn-Sham states=           10
     kinetic-energy cutoff     =      25.0000  Ry
     charge density cutoff     =     180.0000  Ry
     convergence threshold     =      1.0E-06
     mixing beta               =       0.1000
     number of iterations used =           10  TF        mixing
     Exchange-correlation      = SLA PW PBX PBC ( 1  4  3  4 0 0)

     celldm(1)=   4.040000  celldm(2)=   0.000000  celldm(3)=   0.000000
     celldm(4)=   0.000000  celldm(5)=   0.000000  celldm(6)=   0.000000

     crystal axes: (cart. coord. in units of alat)
               a(1) = (   1.000000   0.000000   0.000000 )  
               a(2) = (   0.000000   1.000000   0.000000 )  
               a(3) = (   0.000000   0.000000   1.000000 )  

     reciprocal axes: (cart. coord. in units 2 pi/alat)
               b(1) = (  1.000000  0.000000  0.000000 )  
               b(2) = (  0.000000  1.000000  0.000000 )  
               b(3) = (  0.000000  0.000000  1.000000 )  


     PseudoPot. # 1 for Al read from file:
     /opt/pp/Al.pbe-nl-kjpaw_psl.1.0.0.UPF
     MD5 check sum: 1b67f78b73fe58c7924490f171ce8a1e
     Pseudo is Projector augmented-wave + core cor, Zval =  3.0
     Generated using "atomic" code by A. Dal Corso v.6.3
     Shape of augmentation charge: PSQ
     Using radial grid of 1135 points,  4 beta functions with: 
                l(1) =   0
                l(2) =   0
                l(3) =   1
                l(4) =   1
     Q(r) pseudized with 0 coefficients 


     atomic species   valence    mass     pseudopotential
        Al             3.00    26.98200     Al( 1.00)

     No symmetry found



   Cartesian axes

     site n.     atom                  positions (alat units)
         1           Al  tau(   1) = (  -0.0001235   0.0000359   0.0002572  )
         2           Al  tau(   2) = (   0.5003009   0.4992819   0.0002658  )
         3           Al  tau(   3) = (   0.4996490   0.0001153   0.5011170  )
         4           Al  tau(   4) = (  -0.0000756   0.5008267   0.5006943  )

     number of k points=    32  Marzari-Vanderbilt smearing, width (Ry)=  0.0200
                       cart. coord. in units 2pi/alat
        k(    1) = (   0.1250000   0.1250000   0.1250000), wk =   0.0625000
        k(    2) = (   0.1250000   0.1250000   0.3750000), wk =   0.0625000
        k(    3) = (   0.1250000   0.3750000   0.3750000), wk =   0.0625000
        k(    4) = (   0.3750000   0.3750000   0.3750000), wk =   0.0625000
        k(    5) = (  -0.1250000  -0.1250000   0.1250000), wk =   0.0625000
        k(    6) = (  -0.1250000   0.1250000  -0.1250000), wk =   0.0625000
        k(    7) = (   0.1250000  -0.1250000  -0.1250000), wk =   0.0625000
        k(    8) = (  -0.1250000  -0.1250000   0.3750000), wk =   0.0625000
        k(    9) = (  -0.1250000   0.1250000  -0.3750000), wk =   0.0625000
        k(   10) = (   0.1250000  -0.1250000  -0.3750000), wk =   0.0625000
        k(   11) = (   0.3750000  -0.1250000   0.1250000), wk =   0.0625000
        k(   12) = (  -0.3750000  -0.1250000  -0.1250000), wk =   0.0625000
        k(   13) = (   0.3750000   0.1250000  -0.1250000), wk =   0.0625000
        k(   14) = (  -0.3750000   0.1250000   0.1250000), wk =   0.0625000
        k(   15) = (  -0.1250000   0.3750000   0.1250000), wk =   0.0625000
        k(   16) = (  -0.1250000  -0.3750000  -0.1250000), wk =   0.0625000
        k(   17) = (   0.1250000   0.3750000  -0.1250000), wk =   0.0625000
        k(   18) = (   0.1250000  -0.3750000   0.1250000), wk =   0.0625000
        k(   19) = (  -0.1250000  -0.3750000   0.3750000), wk =   0.0625000
        k(   20) = (  -0.1250000   0.3750000  -0.3750000), wk =   0.0625000
        k(   21) = (   0.1250000  -0.3750000  -0.3750000), wk =   0.0625000
        k(   22) = (   0.3750000   0.1250000  -0.3750000), wk =   0.0625000
        k(   23) = (  -0.3750000  -0.1250000  -0.3750000), wk =   0.0625000
        k(   24) = (   0.3750000  -0.1250000   0.3750000), wk =   0.0625000
        k(   25) = (  -0.3750000   0.1250000   0.3750000), wk =   0.0625000
        k(   26) = (   0.3750000  -0.3750000   0.1250000), wk =   0.0625000
        k(   27) = (  -0.3750000  -0.3750000  -0.1250000), wk =   0.0625000
        k(   28) = (   0.3750000   0.3750000  -0.1250000), wk =   0.0625000
        k(   29) = (  -0.3750000   0.3750000   0.1250000), wk =   0.0625000
        k(   30) = (  -0.3750000  -0.3750000   0.3750000), wk =   0.0625000
        k(   31) = (  -0.3750000   0.3750000  -0.3750000), wk =   0.0625000
        k(   32) = (   0.3750000  -0.3750000  -0.3750000), wk =   0.0625000

     Dense  grid:     2721 G-vectors     FFT dimensions: (  18,  18,  18)

     Smooth grid:     1141 G-vectors     FFT dimensions: (  15,  15,  15)

     Estimated max dynamical RAM per process >       4.88 MB

     Initial potential from superposition of free atoms

     starting charge   11.99084, renormalised to   12.00000
     Starting wfcs are   16 randomized atomic wfcs
     Checking if some PAW data can be deallocated... 

     total cpu time spent up to now is        3.0 secs

     Self-consistent Calculation

     iteration #  1     ecut=    25.00 Ry     beta= 0.10
     Davidson diagonalization with overlap
     ethr =  1.00E-02,  avg # of iterations =  4.9

     total cpu time spent up to now is        4.4 secs

     total energy              =    -141.59677106 Ry
     Harris-Foulkes estimate   =    -141.75245726 Ry
     estimated scf accuracy    <       0.18305180 Ry

     iteration #  2     ecut=    25.00 Ry     beta= 0.10
     Davidson diagonalization with overlap
     ethr =  1.53E-03,  avg # of iterations =  1.0

     total cpu time spent up to now is        4.9 secs

     total energy              =    -141.10413487 Ry
     Harris-Foulkes estimate   =    -141.60028004 Ry
     estimated scf accuracy    <       0.15415421 Ry

     iteration #  3     ecut=    25.00 Ry     beta= 0.10
     Davidson diagonalization with overlap
     ethr =  1.28E-03,  avg # of iterations =  2.0

     total cpu time spent up to now is        5.3 secs

     total energy              =    -141.18614931 Ry
     Harris-Foulkes estimate   =    -141.20268511 Ry
     estimated scf accuracy    <       0.01651232 Ry

     iteration #  4     ecut=    25.00 Ry     beta= 0.10
     Davidson diagonalization with overlap
     ethr =  1.38E-04,  avg # of iterations =  1.0

     total cpu time spent up to now is        5.6 secs

     total energy              =    -141.18498854 Ry
     Harris-Foulkes estimate   =    -141.18668123 Ry
     estimated scf accuracy    <       0.01282076 Ry

     iteration #  5     ecut=    25.00 Ry     beta= 0.10
     Davidson diagonalization with overlap
     ethr =  1.07E-04,  avg # of iterations =  1.0

     total cpu time spent up to now is        6.0 secs

     total energy              =    -141.18755269 Ry
     Harris-Foulkes estimate   =    -141.18621276 Ry
     estimated scf accuracy    <       0.00047644 Ry

     iteration #  6     ecut=    25.00 Ry     beta= 0.10
     Davidson diagonalization with overlap
     ethr =  3.97E-06,  avg # of iterations =  2.8

     total cpu time spent up to now is        6.4 secs

     total energy              =    -141.18742955 Ry
     Harris-Foulkes estimate   =    -141.18776037 Ry
     estimated scf accuracy    <       0.00005460 Ry

     iteration #  7     ecut=    25.00 Ry     beta= 0.10
     Davidson diagonalization with overlap
     ethr =  4.55E-07,  avg # of iterations =  1.3

     total cpu time spent up to now is        6.8 secs

     total energy              =    -141.18618594 Ry
     Harris-Foulkes estimate   =    -141.18743145 Ry
     estimated scf accuracy    <       0.00004664 Ry

     iteration #  8     ecut=    25.00 Ry     beta= 0.10
     Davidson diagonalization with overlap
     ethr =  3.89E-07,  avg # of iterations =  3.0

     total cpu time spent up to now is        7.2 secs

     total energy              =    -141.18627024 Ry
     Harris-Foulkes estimate   =    -141.18626722 Ry
     estimated scf accuracy    <       0.00000642 Ry

     iteration #  9     ecut=    25.00 Ry     beta= 0.10
     Davidson diagonalization with overlap
     ethr =  5.35E-08,  avg # of iterations =  1.0

     total cpu time spent up to now is        7.5 secs

     total energy              =    -141.18620689 Ry
     Harris-Foulkes estimate   =    -141.18627028 Ry
     estimated scf accuracy    <       0.00000634 Ry

     iteration # 10     ecut=    25.00 Ry     beta= 0.10
     Davidson diagonalization with overlap
     ethr =  5.28E-08,  avg # of iterations =  2.8

     total cpu time spent up to now is        7.9 secs

     total energy              =    -141.18621414 Ry
     Harris-Foulkes estimate   =    -141.18621376 Ry
     estimated scf accuracy    <       0.00000171 Ry

     iteration # 11     ecut=    25.00 Ry     beta= 0.10
     Davidson diagonalization with overlap
     ethr =  1.42E-08,  avg # of iterations =  1.0

     total cpu time spent up to now is        8.2 secs

     End of self-consistent calculation

          k = 0.1250 0.1250 0.1250 (   144 PWs)   bands (ev):

    30.9321  41.5202  41.5388  41.5571  52.5644  52.5849  52.6051  54.9729
    54.9832  54.9936

          k = 0.1250 0.1250 0.3750 (   138 PWs)   bands (ev):

    34.4225  39.0635  43.9990  44.0177  51.9434  51.9610  54.9733  54.9819
    55.8702  61.7717

          k = 0.1250 0.3750 0.3750 (   141 PWs)   bands (ev):

    37.4453  41.6914  41.7283  44.5874  50.5875  53.0481  53.0983  57.1533
    57.6917  60.8841

          k = 0.3750 0.3750 0.3750 (   145 PWs)   bands (ev):

    39.9359  44.0142  44.0519  44.0893  47.8480  47.8896  47.9311  51.7785
    67.2040  67.2085

          k =-0.1250-0.1250 0.1250 (   144 PWs)   bands (ev):

    30.9321  41.5241  41.5388  41.5532  52.5687  52.5847  52.6008  54.9751
    54.9832  54.9914

          k =-0.1250 0.1250-0.1250 (   144 PWs)   bands (ev):

    30.9321  41.5278  41.5388  41.5494  52.5728  52.5848  52.5966  54.9772
    54.9833  54.9893

          k = 0.1250-0.1250-0.1250 (   144 PWs)   bands (ev):

    30.9321  41.5258  41.5388  41.5514  52.5707  52.5848  52.5989  54.9761
    54.9832  54.9904

          k =-0.1250-0.1250 0.3750 (   138 PWs)   bands (ev):

    34.4225  39.0635  43.9990  44.0176  51.9434  51.9610  54.9734  54.9819
    55.8699  61.7717

          k =-0.1250 0.1250-0.3750 (   138 PWs)   bands (ev):

    34.4225  39.0635  44.0040  44.0126  51.9481  51.9562  54.9757  54.9796
    55.8700  61.7718

          k = 0.1250-0.1250-0.3750 (   138 PWs)   bands (ev):

    34.4225  39.0635  44.0041  44.0126  51.9481  51.9562  54.9757  54.9796
    55.8702  61.7712

          k = 0.3750-0.1250 0.1250 (   138 PWs)   bands (ev):

    34.4225  39.0634  44.0040  44.0127  51.9480  51.9561  54.9758  54.9798
    55.8701  61.7715

          k =-0.3750-0.1250-0.1250 (   138 PWs)   bands (ev):

    34.4225  39.0634  44.0004  44.0163  51.9448  51.9598  54.9737  54.9809
    55.8707  61.7717

          k = 0.3750 0.1250-0.1250 (   138 PWs)   bands (ev):

    34.4225  39.0634  44.0040  44.0127  51.9479  51.9561  54.9758  54.9798
    55.8702  61.7719

          k =-0.3750 0.1250 0.1250 (   138 PWs)   bands (ev):

    34.4225  39.0634  44.0004  44.0163  51.9449  51.9598  54.9737  54.9810
    55.8703  61.7717

          k =-0.1250 0.3750 0.1250 (   138 PWs)   bands (ev):

    34.4225  39.0633  44.0073  44.0097  51.9511  51.9534  54.9770  54.9781
    55.8701  61.7717

          k =-0.1250-0.3750-0.1250 (   138 PWs)   bands (ev):

    34.4225  39.0633  44.0038  44.0132  51.9477  51.9565  54.9755  54.9797
    55.8702  61.7719

          k = 0.1250 0.3750-0.1250 (   138 PWs)   bands (ev):

    34.4225  39.0633  44.0073  44.0097  51.9511  51.9533  54.9768  54.9780
    55.8704  61.7717

          k = 0.1250-0.3750 0.1250 (   138 PWs)   bands (ev):

    34.4225  39.0633  44.0038  44.0131  51.9478  51.9565  54.9755  54.9797
    55.8700  61.7717

          k =-0.1250-0.3750 0.3750 (   141 PWs)   bands (ev):

    37.4452  41.6999  41.7200  44.5872  50.5877  53.0595  53.0868  57.1527
    57.6926  60.8843

          k =-0.1250 0.3750-0.3750 (   141 PWs)   bands (ev):

    37.4452  41.6999  41.7200  44.5872  50.5877  53.0594  53.0868  57.1523
    57.6931  60.8857

          k = 0.1250-0.3750-0.3750 (   141 PWs)   bands (ev):

    37.4453  41.6915  41.7283  44.5874  50.5876  53.0481  53.0983  57.1529
    57.6919  60.8810

          k = 0.3750 0.1250-0.3750 (   141 PWs)   bands (ev):

    37.4453  41.7071  41.7126  44.5872  50.5875  53.0695  53.0771  57.1534
    57.6919  60.8858

          k =-0.3750-0.1250-0.3750 (   141 PWs)   bands (ev):

    37.4453  41.6991  41.7207  44.5871  50.5878  53.0586  53.0881  57.1535
    57.6915  60.8846

          k = 0.3750-0.1250 0.3750 (   141 PWs)   bands (ev):

    37.4452  41.6991  41.7207  44.5872  50.5876  53.0585  53.0880  57.1537
    57.6916  60.8877

          k =-0.3750 0.1250 0.3750 (   141 PWs)   bands (ev):

    37.4452  41.7071  41.7126  44.5872  50.5876  53.0696  53.0772  57.1530
    57.6919  60.8858

          k = 0.3750-0.3750 0.1250 (   141 PWs)   bands (ev):

    37.4453  41.7000  41.7198  44.5873  50.5873  53.0596  53.0867  57.1536
    57.6917  60.8851

          k =-0.3750-0.3750-0.1250 (   141 PWs)   bands (ev):

    37.4453  41.6883  41.7315  44.5872  50.5877  53.0436  53.1027  57.1515
    57.6936  60.8799

          k = 0.3750 0.3750-0.1250 (   141 PWs)   bands (ev):

    37.4453  41.6883  41.7316  44.5872  50.5876  53.0436  53.1026  57.1536
    57.6916  60.8816

          k =-0.3750 0.3750 0.1250 (   141 PWs)   bands (ev):

    37.4453  41.7000  41.7198  44.5873  50.5877  53.0597  53.0868  57.1489
    57.6962  60.8849

          k =-0.3750-0.3750 0.3750 (   145 PWs)   bands (ev):

    39.9359  44.0220  44.0519  44.0814  47.8567  47.8895  47.9224  51.7786
    67.2044  67.2092

          k =-0.3750 0.3750-0.3750 (   145 PWs)   bands (ev):

    39.9359  44.0297  44.0519  44.0737  47.8652  47.8895  47.9138  51.7786
    67.2049  67.2082

          k = 0.3750-0.3750-0.3750 (   145 PWs)   bands (ev):

    39.9359  44.0256  44.0518  44.0778  47.8608  47.8896  47.9185  51.7785
    67.2053  67.2082

     the Fermi energy is    52.7985 ev

!    total energy              =    -141.18621317 Ry
     Harris-Foulkes estimate   =    -141.18621428 Ry
     estimated scf accuracy    <       0.00000044 Ry

     total all-electron energy =     -1925.757335 Ry

     The total energy is the sum of the following terms:

     one-electron contribution =      58.74562901 Ry
     hartree contribution      =       0.21429054 Ry
     xc contribution           =     -17.28879022 Ry
     ewald contribution        =     -40.85514779 Ry
     one-center paw contrib.   =    -142.00165430 Ry
     smearing contrib. (-TS)   =      -0.00054040 Ry

     convergence has been achieved in  11 iterations

     Forces acting on atoms (cartesian axes, Ry/au):

     atom    1 type  1   force =     0.00203265   -0.00042470    0.01679289
     atom    2 type  1   force =    -0.00331730    0.00380657    0.01675432
     atom    3 type  1   force =    -0.00054739   -0.00069804   -0.01768457
     atom    4 type  1   force =     0.00183203   -0.00268383   -0.01586264

     Total force =     0.034179     Total SCF correction =     0.000015


     Computing stress (Cartesian axis) and pressure

          total   stress  (Ry/bohr**3)                   (kbar)     P=59561.61
   0.40489693   0.00000114   0.00000087      59562.38      0.17      0.13
   0.00000114   0.40488539  -0.00000103          0.17  59560.69     -0.15
   0.00000087  -0.00000103   0.40489264          0.13     -0.15  59561.75


     Writing output data file fe_scf_fcc_2.save/

     init_run     :      1.53s CPU      1.55s WALL (       1 calls)
     electrons    :      5.00s CPU      5.19s WALL (       1 calls)
     forces       :      0.02s CPU      0.03s WALL (       1 calls)
     stress       :      0.06s CPU      0.07s WALL (       1 calls)

     Called by init_run:
     wfcinit      :      0.17s CPU      0.17s WALL (       1 calls)
     potinit      :      0.76s CPU      0.78s WALL (       1 calls)
     hinit0       :      0.58s CPU      0.58s WALL (       1 calls)

     Called by electrons:
     c_bands      :      1.44s CPU      1.48s WALL (      11 calls)
     sum_band     :      0.21s CPU      0.22s WALL (      11 calls)
     v_of_rho     :      0.08s CPU      0.08s WALL (      12 calls)
     newd         :      0.07s CPU      0.07s WALL (      12 calls)
     PAW_pot      :      3.96s CPU      4.10s WALL (      12 calls)
     mix_rho      :      0.01s CPU      0.01s WALL (      11 calls)

     Called by c_bands:
     init_us_2    :      0.05s CPU      0.06s WALL (     800 calls)
     cegterg      :      1.36s CPU      1.40s WALL (     352 calls)

     Called by sum_band:
     sum_band:bec :      0.00s CPU      0.00s WALL (     352 calls)
     addusdens    :      0.03s CPU      0.04s WALL (      11 calls)

     Called by *egterg:
     h_psi        :      0.90s CPU      0.93s WALL (    1083 calls)
     s_psi        :      0.07s CPU      0.07s WALL (    1083 calls)
     g_psi        :      0.01s CPU      0.01s WALL (     699 calls)
     cdiaghg      :      0.34s CPU      0.34s WALL (    1051 calls)

     Called by h_psi:
     h_psi:pot    :      0.90s CPU      0.92s WALL (    1083 calls)
     h_psi:calbec :      0.05s CPU      0.07s WALL (    1083 calls)
     vloc_psi     :      0.75s CPU      0.78s WALL (    1083 calls)
     add_vuspsi   :      0.09s CPU      0.07s WALL (    1083 calls)

     General routines
     calbec       :      0.08s CPU      0.09s WALL (    1595 calls)
     fft          :      0.06s CPU      0.06s WALL (     180 calls)
     ffts         :      0.00s CPU      0.00s WALL (      23 calls)
     fftw         :      0.70s CPU      0.72s WALL (   22098 calls)
     interpolate  :      0.00s CPU      0.00s WALL (      12 calls)

     Parallel routines

     PWSCF        :     8.08s CPU         8.35s WALL


   This run was terminated on:   2:46:48  20Oct2019            

=------------------------------------------------------------------------------=
   JOB DONE.
=------------------------------------------------------------------------------=
