
     Program PWSCF v.6.3 starts on 22Oct2019 at 19: 6: 8 

     This program is part of the open-source Quantum ESPRESSO suite
     for quantum simulation of materials; please cite
         "P. Giannozzi et al., J. Phys.:Condens. Matter 21 395502 (2009);
         "P. Giannozzi et al., J. Phys.:Condens. Matter 29 465901 (2017);
          URL http://www.quantum-espresso.org", 
     in publications or presentations arising from this work. More details at
     http://www.quantum-espresso.org/quote

     Parallel version (MPI & OpenMP), running on      20 processor cores
     Number of MPI processes:                20
     Threads/MPI process:                     1

     MPI processes distributed on     1 nodes
     R & G space division:  proc/nbgrp/npool/nimage =      20
     Reading input from /rds/homes/b/bxp912/jobs/20191022_test/wd/runpwscf/file_10129.in
Warning: card &IONS ignored
Warning: card ION_DYNAMICS = 'BFGS', ignored
Warning: card / ignored
Warning: card &CELL ignored
Warning: card CELL_DYNAMICS = 'BFGS', ignored
Warning: card CELL_FACTOR = 2.0, ignored
Warning: card PRESS = 0.0, ignored
Warning: card / ignored

     Current dimensions of program PWSCF are:
     Max number of different atomic species (ntypx) = 10
     Max number of k-points (npk) =  40000
     Max angular momentum in pseudopotentials (lmaxx) =  3
     Message from routine read_upf::
     Pseudo file /rds/homes/b/bxp912/pp/Al.pbe-nl-kjpaw_psl.1.0.0.UPF has been successfully fixed on the fly.
To avoid this message in the future you can permanently fix 
 your pseudo files following instructions given in: 
https://gitlab.com/QEF/q-e/blob/master/upftools/how_to_fix_upf.md
               file Al.pbe-nl-kjpaw_psl.1.0.0.UPF: wavefunction(s)  3S 3P renormalized

     Subspace diagonalization in iterative solution of the eigenvalue problem:
     a serial algorithm will be used

 
     Parallelization info
     --------------------
     sticks:   dense  smooth     PW     G-vecs:    dense   smooth      PW
     Min          12      12      6                  135      135      50
     Max          13      13      7                  138      138      53
     Sum         241     241    121                 2721     2721    1021
 


     bravais-lattice index     =            0
     lattice parameter (alat)  =       4.0400  a.u.
     unit-cell volume          =      65.9393 (a.u.)^3
     number of atoms/cell      =            4
     number of atomic types    =            1
     number of electrons       =        12.00
     number of Kohn-Sham states=           10
     kinetic-energy cutoff     =      75.0000  Ry
     charge density cutoff     =     180.0000  Ry
     convergence threshold     =      1.0E-06
     mixing beta               =       0.1000
     number of iterations used =           10  TF        mixing
     Exchange-correlation      = SLA PW PBX PBC ( 1  4  3  4 0 0)

     celldm(1)=   4.040000  celldm(2)=   0.000000  celldm(3)=   0.000000
     celldm(4)=   0.000000  celldm(5)=   0.000000  celldm(6)=   0.000000

     crystal axes: (cart. coord. in units of alat)
               a(1) = (   1.000000   0.000000   0.000000 )  
               a(2) = (   0.000000   1.000000   0.000000 )  
               a(3) = (   0.000000   0.000000   1.000000 )  

     reciprocal axes: (cart. coord. in units 2 pi/alat)
               b(1) = (  1.000000  0.000000  0.000000 )  
               b(2) = (  0.000000  1.000000  0.000000 )  
               b(3) = (  0.000000  0.000000  1.000000 )  


     PseudoPot. # 1 for Al read from file:
     /rds/homes/b/bxp912/pp/Al.pbe-nl-kjpaw_psl.1.0.0.UPF
     MD5 check sum: 339dbea23cf3ab9a065ad45c0f9085d7
     Pseudo is Projector augmented-wave + core cor, Zval =  3.0
     Generated using "atomic" code by A. Dal Corso v.5.1
     Shape of augmentation charge: PSQ
     Using radial grid of 1135 points,  4 beta functions with: 
                l(1) =   0
                l(2) =   0
                l(3) =   1
                l(4) =   1
     Q(r) pseudized with 0 coefficients 


     atomic species   valence    mass     pseudopotential
        Al             3.00    26.98200     Al( 1.00)

     No symmetry found



   Cartesian axes

     site n.     atom                  positions (alat units)
         1           Al  tau(   1) = (  -0.0001235   0.0000359   0.0002572  )
         2           Al  tau(   2) = (   0.5003009   0.4992819   0.0002658  )
         3           Al  tau(   3) = (   0.4996490   0.0001153   0.5011170  )
         4           Al  tau(   4) = (  -0.0000756   0.5008267   0.5006943  )

     number of k points=    32  Marzari-Vanderbilt smearing, width (Ry)=  0.0200
                       cart. coord. in units 2pi/alat
        k(    1) = (   0.1250000   0.1250000   0.1250000), wk =   0.0625000
        k(    2) = (   0.1250000   0.1250000   0.3750000), wk =   0.0625000
        k(    3) = (   0.1250000   0.3750000   0.3750000), wk =   0.0625000
        k(    4) = (   0.3750000   0.3750000   0.3750000), wk =   0.0625000
        k(    5) = (  -0.1250000  -0.1250000   0.1250000), wk =   0.0625000
        k(    6) = (  -0.1250000   0.1250000  -0.1250000), wk =   0.0625000
        k(    7) = (   0.1250000  -0.1250000  -0.1250000), wk =   0.0625000
        k(    8) = (  -0.1250000  -0.1250000   0.3750000), wk =   0.0625000
        k(    9) = (  -0.1250000   0.1250000  -0.3750000), wk =   0.0625000
        k(   10) = (   0.1250000  -0.1250000  -0.3750000), wk =   0.0625000
        k(   11) = (   0.3750000  -0.1250000   0.1250000), wk =   0.0625000
        k(   12) = (  -0.3750000  -0.1250000  -0.1250000), wk =   0.0625000
        k(   13) = (   0.3750000   0.1250000  -0.1250000), wk =   0.0625000
        k(   14) = (  -0.3750000   0.1250000   0.1250000), wk =   0.0625000
        k(   15) = (  -0.1250000   0.3750000   0.1250000), wk =   0.0625000
        k(   16) = (  -0.1250000  -0.3750000  -0.1250000), wk =   0.0625000
        k(   17) = (   0.1250000   0.3750000  -0.1250000), wk =   0.0625000
        k(   18) = (   0.1250000  -0.3750000   0.1250000), wk =   0.0625000
        k(   19) = (  -0.1250000  -0.3750000   0.3750000), wk =   0.0625000
        k(   20) = (  -0.1250000   0.3750000  -0.3750000), wk =   0.0625000
        k(   21) = (   0.1250000  -0.3750000  -0.3750000), wk =   0.0625000
        k(   22) = (   0.3750000   0.1250000  -0.3750000), wk =   0.0625000
        k(   23) = (  -0.3750000  -0.1250000  -0.3750000), wk =   0.0625000
        k(   24) = (   0.3750000  -0.1250000   0.3750000), wk =   0.0625000
        k(   25) = (  -0.3750000   0.1250000   0.3750000), wk =   0.0625000
        k(   26) = (   0.3750000  -0.3750000   0.1250000), wk =   0.0625000
        k(   27) = (  -0.3750000  -0.3750000  -0.1250000), wk =   0.0625000
        k(   28) = (   0.3750000   0.3750000  -0.1250000), wk =   0.0625000
        k(   29) = (  -0.3750000   0.3750000   0.1250000), wk =   0.0625000
        k(   30) = (  -0.3750000  -0.3750000   0.3750000), wk =   0.0625000
        k(   31) = (  -0.3750000   0.3750000  -0.3750000), wk =   0.0625000
        k(   32) = (   0.3750000  -0.3750000  -0.3750000), wk =   0.0625000

     Dense  grid:     2721 G-vectors     FFT dimensions: (  18,  18,  18)

     Estimated max dynamical RAM per process >       0.63 MB

     Estimated total dynamical RAM >      12.56 MB

     Initial potential from superposition of free atoms

     starting charge   11.99084, renormalised to   12.00000
     Starting wfcs are   16 randomized atomic wfcs
     Checking if some PAW data can be deallocated... 

     total cpu time spent up to now is        0.7 secs

     Self-consistent Calculation

     iteration #  1     ecut=    75.00 Ry     beta= 0.10
     Davidson diagonalization with overlap
     ethr =  1.00E-02,  avg # of iterations =  4.9

     total cpu time spent up to now is        0.9 secs

     total energy              =    -141.65272375 Ry
     Harris-Foulkes estimate   =    -141.80699869 Ry
     estimated scf accuracy    <       0.18109499 Ry

     iteration #  2     ecut=    75.00 Ry     beta= 0.10
     Davidson diagonalization with overlap
     ethr =  1.51E-03,  avg # of iterations =  1.0

     total cpu time spent up to now is        1.0 secs

     total energy              =    -141.16264227 Ry
     Harris-Foulkes estimate   =    -141.65530149 Ry
     estimated scf accuracy    <       0.15204106 Ry

     iteration #  3     ecut=    75.00 Ry     beta= 0.10
     Davidson diagonalization with overlap
     ethr =  1.27E-03,  avg # of iterations =  2.0

     total cpu time spent up to now is        1.1 secs

     total energy              =    -141.24370734 Ry
     Harris-Foulkes estimate   =    -141.25602402 Ry
     estimated scf accuracy    <       0.01567243 Ry

     iteration #  4     ecut=    75.00 Ry     beta= 0.10
     Davidson diagonalization with overlap
     ethr =  1.31E-04,  avg # of iterations =  1.0

     total cpu time spent up to now is        1.2 secs

     total energy              =    -141.24154111 Ry
     Harris-Foulkes estimate   =    -141.24414336 Ry
     estimated scf accuracy    <       0.01248332 Ry

     iteration #  5     ecut=    75.00 Ry     beta= 0.10
     Davidson diagonalization with overlap
     ethr =  1.04E-04,  avg # of iterations =  1.0

     total cpu time spent up to now is        1.3 secs

     total energy              =    -141.24352944 Ry
     Harris-Foulkes estimate   =    -141.24262370 Ry
     estimated scf accuracy    <       0.00075268 Ry

     iteration #  6     ecut=    75.00 Ry     beta= 0.10
     Davidson diagonalization with overlap
     ethr =  6.27E-06,  avg # of iterations =  2.8

     total cpu time spent up to now is        1.4 secs

     total energy              =    -141.24379277 Ry
     Harris-Foulkes estimate   =    -141.24379373 Ry
     estimated scf accuracy    <       0.00010099 Ry

     iteration #  7     ecut=    75.00 Ry     beta= 0.10
     Davidson diagonalization with overlap
     ethr =  8.42E-07,  avg # of iterations =  1.1

     total cpu time spent up to now is        1.5 secs

     total energy              =    -141.24279061 Ry
     Harris-Foulkes estimate   =    -141.24379403 Ry
     estimated scf accuracy    <       0.00008290 Ry

     iteration #  8     ecut=    75.00 Ry     beta= 0.10
     Davidson diagonalization with overlap
     ethr =  6.91E-07,  avg # of iterations =  2.8

     total cpu time spent up to now is        1.7 secs

     total energy              =    -141.24292925 Ry
     Harris-Foulkes estimate   =    -141.24286906 Ry
     estimated scf accuracy    <       0.00001687 Ry

     iteration #  9     ecut=    75.00 Ry     beta= 0.10
     Davidson diagonalization with overlap
     ethr =  1.41E-07,  avg # of iterations =  2.0

     total cpu time spent up to now is        1.8 secs

     total energy              =    -141.24283090 Ry
     Harris-Foulkes estimate   =    -141.24293161 Ry
     estimated scf accuracy    <       0.00000755 Ry

     iteration # 10     ecut=    75.00 Ry     beta= 0.10
     Davidson diagonalization with overlap
     ethr =  6.29E-08,  avg # of iterations =  3.0

     total cpu time spent up to now is        1.9 secs

     End of self-consistent calculation

          k = 0.1250 0.1250 0.1250 (   724 PWs)   bands (ev):

    30.9161  41.4373  41.4564  41.4751  52.4297  52.4499  52.4701  54.9333
    54.9432  54.9532

          k = 0.1250 0.1250 0.3750 (   733 PWs)   bands (ev):

    34.4087  39.0146  43.9428  43.9616  51.8128  51.8300  54.8790  54.8877
    55.6929  61.5176

          k = 0.1250 0.3750 0.3750 (   723 PWs)   bands (ev):

    37.4238  41.6582  41.6952  44.5501  50.4950  52.9075  52.9566  57.0474
    57.5692  60.7359

          k = 0.3750 0.3750 0.3750 (   717 PWs)   bands (ev):

    39.8892  43.9777  44.0157  44.0534  47.7760  47.8175  47.8590  51.6514
    66.9760  66.9768

          k =-0.1250-0.1250 0.1250 (   724 PWs)   bands (ev):

    30.9161  41.4413  41.4564  41.4711  52.4339  52.4499  52.4658  54.9354
    54.9432  54.9511

          k =-0.1250 0.1250-0.1250 (   724 PWs)   bands (ev):

    30.9161  41.4451  41.4564  41.4672  52.4381  52.4499  52.4617  54.9375
    54.9432  54.9491

          k = 0.1250-0.1250-0.1250 (   724 PWs)   bands (ev):

    30.9161  41.4431  41.4564  41.4693  52.4359  52.4500  52.4639  54.9364
    54.9432  54.9501

          k =-0.1250-0.1250 0.3750 (   733 PWs)   bands (ev):

    34.4087  39.0146  43.9428  43.9616  51.8128  51.8301  54.8790  54.8877
    55.6927  61.5177

          k =-0.1250 0.1250-0.3750 (   733 PWs)   bands (ev):

    34.4087  39.0146  43.9479  43.9565  51.8174  51.8253  54.8814  54.8854
    55.6927  61.5177

          k = 0.1250-0.1250-0.3750 (   733 PWs)   bands (ev):

    34.4087  39.0146  43.9479  43.9566  51.8174  51.8253  54.8814  54.8853
    55.6929  61.5176

          k = 0.3750-0.1250 0.1250 (   733 PWs)   bands (ev):

    34.4087  39.0145  43.9479  43.9566  51.8172  51.8252  54.8815  54.8855
    55.6929  61.5177

          k =-0.3750-0.1250-0.1250 (   733 PWs)   bands (ev):

    34.4087  39.0145  43.9442  43.9603  51.8141  51.8288  54.8793  54.8867
    55.6935  61.5178

          k = 0.3750 0.1250-0.1250 (   733 PWs)   bands (ev):

    34.4087  39.0145  43.9479  43.9566  51.8172  51.8252  54.8815  54.8855
    55.6930  61.5179

          k =-0.3750 0.1250 0.1250 (   733 PWs)   bands (ev):

    34.4087  39.0145  43.9442  43.9602  51.8142  51.8289  54.8794  54.8867
    55.6932  61.5178

          k =-0.1250 0.3750 0.1250 (   733 PWs)   bands (ev):

    34.4087  39.0144  43.9512  43.9536  51.8203  51.8225  54.8827  54.8838
    55.6929  61.5177

          k =-0.1250-0.3750-0.1250 (   733 PWs)   bands (ev):

    34.4087  39.0144  43.9477  43.9571  51.8170  51.8256  54.8812  54.8855
    55.6929  61.5178

          k = 0.1250 0.3750-0.1250 (   733 PWs)   bands (ev):

    34.4087  39.0144  43.9512  43.9536  51.8203  51.8225  54.8825  54.8837
    55.6932  61.5177

          k = 0.1250-0.3750 0.1250 (   733 PWs)   bands (ev):

    34.4087  39.0145  43.9477  43.9571  51.8170  51.8257  54.8812  54.8855
    55.6928  61.5178

          k =-0.1250-0.3750 0.3750 (   723 PWs)   bands (ev):

    37.4237  41.6667  41.6869  44.5500  50.4951  52.9186  52.9454  57.0467
    57.5702  60.7356

          k =-0.1250 0.3750-0.3750 (   723 PWs)   bands (ev):

    37.4237  41.6667  41.6869  44.5500  50.4951  52.9185  52.9453  57.0463
    57.5706  60.7356

          k = 0.1250-0.3750-0.3750 (   723 PWs)   bands (ev):

    37.4238  41.6583  41.6953  44.5502  50.4950  52.9075  52.9566  57.0470
    57.5695  60.7349

          k = 0.3750 0.1250-0.3750 (   723 PWs)   bands (ev):

    37.4238  41.6740  41.6795  44.5500  50.4949  52.9284  52.9358  57.0474
    57.5695  60.7376

          k =-0.3750-0.1250-0.3750 (   723 PWs)   bands (ev):

    37.4238  41.6659  41.6876  44.5499  50.4952  52.9177  52.9465  57.0476
    57.5691  60.7356

          k = 0.3750-0.1250 0.3750 (   723 PWs)   bands (ev):

    37.4237  41.6659  41.6876  44.5499  50.4950  52.9176  52.9464  57.0478
    57.5692  60.7351

          k =-0.3750 0.1250 0.3750 (   723 PWs)   bands (ev):

    37.4237  41.6740  41.6795  44.5500  50.4951  52.9285  52.9359  57.0470
    57.5695  60.7369

          k = 0.3750-0.3750 0.1250 (   723 PWs)   bands (ev):

    37.4238  41.6669  41.6866  44.5501  50.4948  52.9187  52.9452  57.0476
    57.5693  60.7373

          k =-0.3750-0.3750-0.1250 (   723 PWs)   bands (ev):

    37.4238  41.6551  41.6984  44.5500  50.4951  52.9031  52.9609  57.0455
    57.5712  60.7328

          k = 0.3750 0.3750-0.1250 (   723 PWs)   bands (ev):

    37.4238  41.6551  41.6984  44.5500  50.4950  52.9031  52.9608  57.0477
    57.5692  60.7323

          k =-0.3750 0.3750 0.1250 (   723 PWs)   bands (ev):

    37.4238  41.6668  41.6866  44.5500  50.4951  52.9188  52.9453  57.0430
    57.5738  60.7368

          k =-0.3750-0.3750 0.3750 (   717 PWs)   bands (ev):

    39.8891  43.9856  44.0157  44.0454  47.7847  47.8175  47.8503  51.6515
    66.9760  66.9773

          k =-0.3750 0.3750-0.3750 (   717 PWs)   bands (ev):

    39.8891  43.9934  44.0157  44.0377  47.7933  47.8175  47.8418  51.6516
    66.9752  66.9782

          k = 0.3750-0.3750-0.3750 (   717 PWs)   bands (ev):

    39.8891  43.9893  44.0156  44.0418  47.7888  47.8176  47.8464  51.6515
    66.9751  66.9777

     the Fermi energy is    52.6617 ev

!    total energy              =    -141.24284113 Ry
     Harris-Foulkes estimate   =    -141.24284163 Ry
     estimated scf accuracy    <       0.00000073 Ry

     total all-electron energy =     -1925.813969 Ry

     The total energy is the sum of the following terms:

     one-electron contribution =      58.67271446 Ry
     hartree contribution      =       0.21197346 Ry
     xc contribution           =     -17.28537824 Ry
     ewald contribution        =     -40.85514779 Ry
     one-center paw contrib.   =    -141.98638067 Ry
     smearing contrib. (-TS)   =      -0.00062235 Ry

     convergence has been achieved in  10 iterations

     Forces acting on atoms (cartesian axes, Ry/au):

     atom    1 type  1   force =     0.00202978   -0.00041315    0.01638290
     atom    2 type  1   force =    -0.00329136    0.00371279    0.01635739
     atom    3 type  1   force =    -0.00056351   -0.00064358   -0.01728286
     atom    4 type  1   force =     0.00182509   -0.00265606   -0.01545743

     Total force =     0.033371     Total SCF correction =     0.000023


     Computing stress (Cartesian axis) and pressure

          total   stress  (Ry/bohr**3)                   (kbar)     P=59672.40
   0.40565028   0.00000098   0.00000088      59673.21      0.14      0.13
   0.00000098   0.40563909  -0.00000099          0.14  59671.56     -0.15
   0.00000088  -0.00000099   0.40564512          0.13     -0.15  59672.45


     Writing output data file fe_scf_fcc_2.save/
 
     init_run     :      0.08s CPU      0.12s WALL (       1 calls)
     electrons    :      1.12s CPU      1.23s WALL (       1 calls)
     forces       :      0.01s CPU      0.01s WALL (       1 calls)
     stress       :      0.01s CPU      0.01s WALL (       1 calls)

     Called by init_run:
     wfcinit      :      0.05s CPU      0.05s WALL (       1 calls)
     potinit      :      0.01s CPU      0.02s WALL (       1 calls)
     hinit0       :      0.02s CPU      0.04s WALL (       1 calls)

     Called by electrons:
     c_bands      :      0.84s CPU      0.93s WALL (      10 calls)
     sum_band     :      0.14s CPU      0.15s WALL (      10 calls)
     v_of_rho     :      0.00s CPU      0.01s WALL (      11 calls)
     newd         :      0.00s CPU      0.00s WALL (      11 calls)
     PAW_pot      :      0.13s CPU      0.14s WALL (      11 calls)
     mix_rho      :      0.00s CPU      0.00s WALL (      10 calls)

     Called by c_bands:
     init_us_2    :      0.01s CPU      0.01s WALL (     736 calls)
     cegterg      :      0.81s CPU      0.90s WALL (     320 calls)

     Called by sum_band:
     sum_band:bec :      0.00s CPU      0.00s WALL (     320 calls)
     addusdens    :      0.00s CPU      0.00s WALL (      10 calls)

     Called by *egterg:
     h_psi        :      0.57s CPU      0.64s WALL (    1043 calls)
     s_psi        :      0.01s CPU      0.01s WALL (    1043 calls)
     g_psi        :      0.00s CPU      0.00s WALL (     691 calls)
     cdiaghg      :      0.17s CPU      0.19s WALL (    1011 calls)

     Called by h_psi:
     h_psi:pot    :      0.57s CPU      0.63s WALL (    1043 calls)
     h_psi:calbec :      0.05s CPU      0.06s WALL (    1043 calls)
     vloc_psi     :      0.50s CPU      0.56s WALL (    1043 calls)
     add_vuspsi   :      0.01s CPU      0.01s WALL (    1043 calls)

     General routines
     calbec       :      0.08s CPU      0.09s WALL (    1523 calls)
     fft          :      0.01s CPU      0.04s WALL (     147 calls)
     ffts         :      0.00s CPU      0.00s WALL (      10 calls)
     fftw         :      0.58s CPU      0.64s WALL (   20718 calls)
 
     Parallel routines
     fft_scatt_xy :      0.03s CPU      0.04s WALL (   20875 calls)
     fft_scatt_yz :      0.45s CPU      0.50s WALL (   20875 calls)
 
     PWSCF        :     1.84s CPU         2.26s WALL

 
   This run was terminated on:  19: 6:10  22Oct2019            

=------------------------------------------------------------------------------=
   JOB DONE.
=------------------------------------------------------------------------------=
