
     Program PWSCF v.6.3 starts on 20Oct2019 at  1: 8: 1 

     This program is part of the open-source Quantum ESPRESSO suite
     for quantum simulation of materials; please cite
         "P. Giannozzi et al., J. Phys.:Condens. Matter 21 395502 (2009);
         "P. Giannozzi et al., J. Phys.:Condens. Matter 29 465901 (2017);
          URL http://www.quantum-espresso.org", 
     in publications or presentations arising from this work. More details at
     http://www.quantum-espresso.org/quote

     Parallel version (MPI), running on     1 processors

     MPI processes distributed on     1 nodes
     Reading input from /cloud/Code/python/py_pwscf_converge/src/example/wd/runpwscf/file_10043.in
Warning: card &IONS ignored
Warning: card ION_DYNAMICS = 'BFGS', ignored
Warning: card / ignored
Warning: card &CELL ignored
Warning: card CELL_DYNAMICS = 'BFGS', ignored
Warning: card CELL_FACTOR = 2.0, ignored
Warning: card PRESS = 0.0, ignored
Warning: card / ignored

     Current dimensions of program PWSCF are:
     Max number of different atomic species (ntypx) = 10
     Max number of k-points (npk) =  40000
     Max angular momentum in pseudopotentials (lmaxx) =  3
               file Al.pbe-nl-kjpaw_psl.1.0.0.UPF: wavefunction(s)  3S 3P renormalized

     Subspace diagonalization in iterative solution of the eigenvalue problem:
     a serial algorithm will be used


     G-vector sticks info
     --------------------
     sticks:   dense  smooth     PW     G-vecs:    dense   smooth      PW
     Sum         241     241    121                 2721     2721    1021



     bravais-lattice index     =            0
     lattice parameter (alat)  =       4.0400  a.u.
     unit-cell volume          =      65.9393 (a.u.)^3
     number of atoms/cell      =            4
     number of atomic types    =            1
     number of electrons       =        12.00
     number of Kohn-Sham states=           10
     kinetic-energy cutoff     =      75.0000  Ry
     charge density cutoff     =     180.0000  Ry
     convergence threshold     =      1.0E-06
     mixing beta               =       0.1000
     number of iterations used =           10  TF        mixing
     Exchange-correlation      = SLA PW PBX PBC ( 1  4  3  4 0 0)

     celldm(1)=   4.040000  celldm(2)=   0.000000  celldm(3)=   0.000000
     celldm(4)=   0.000000  celldm(5)=   0.000000  celldm(6)=   0.000000

     crystal axes: (cart. coord. in units of alat)
               a(1) = (   1.000000   0.000000   0.000000 )  
               a(2) = (   0.000000   1.000000   0.000000 )  
               a(3) = (   0.000000   0.000000   1.000000 )  

     reciprocal axes: (cart. coord. in units 2 pi/alat)
               b(1) = (  1.000000  0.000000  0.000000 )  
               b(2) = (  0.000000  1.000000  0.000000 )  
               b(3) = (  0.000000  0.000000  1.000000 )  


     PseudoPot. # 1 for Al read from file:
     /opt/pp/Al.pbe-nl-kjpaw_psl.1.0.0.UPF
     MD5 check sum: 1b67f78b73fe58c7924490f171ce8a1e
     Pseudo is Projector augmented-wave + core cor, Zval =  3.0
     Generated using "atomic" code by A. Dal Corso v.6.3
     Shape of augmentation charge: PSQ
     Using radial grid of 1135 points,  4 beta functions with: 
                l(1) =   0
                l(2) =   0
                l(3) =   1
                l(4) =   1
     Q(r) pseudized with 0 coefficients 


     atomic species   valence    mass     pseudopotential
        Al             3.00    26.98200     Al( 1.00)

     No symmetry found



   Cartesian axes

     site n.     atom                  positions (alat units)
         1           Al  tau(   1) = (  -0.0001235   0.0000359   0.0002572  )
         2           Al  tau(   2) = (   0.5003009   0.4992819   0.0002658  )
         3           Al  tau(   3) = (   0.4996490   0.0001153   0.5011170  )
         4           Al  tau(   4) = (  -0.0000756   0.5008267   0.5006943  )

     number of k points=    32  Marzari-Vanderbilt smearing, width (Ry)=  0.0200
                       cart. coord. in units 2pi/alat
        k(    1) = (   0.1250000   0.1250000   0.1250000), wk =   0.0625000
        k(    2) = (   0.1250000   0.1250000   0.3750000), wk =   0.0625000
        k(    3) = (   0.1250000   0.3750000   0.3750000), wk =   0.0625000
        k(    4) = (   0.3750000   0.3750000   0.3750000), wk =   0.0625000
        k(    5) = (  -0.1250000  -0.1250000   0.1250000), wk =   0.0625000
        k(    6) = (  -0.1250000   0.1250000  -0.1250000), wk =   0.0625000
        k(    7) = (   0.1250000  -0.1250000  -0.1250000), wk =   0.0625000
        k(    8) = (  -0.1250000  -0.1250000   0.3750000), wk =   0.0625000
        k(    9) = (  -0.1250000   0.1250000  -0.3750000), wk =   0.0625000
        k(   10) = (   0.1250000  -0.1250000  -0.3750000), wk =   0.0625000
        k(   11) = (   0.3750000  -0.1250000   0.1250000), wk =   0.0625000
        k(   12) = (  -0.3750000  -0.1250000  -0.1250000), wk =   0.0625000
        k(   13) = (   0.3750000   0.1250000  -0.1250000), wk =   0.0625000
        k(   14) = (  -0.3750000   0.1250000   0.1250000), wk =   0.0625000
        k(   15) = (  -0.1250000   0.3750000   0.1250000), wk =   0.0625000
        k(   16) = (  -0.1250000  -0.3750000  -0.1250000), wk =   0.0625000
        k(   17) = (   0.1250000   0.3750000  -0.1250000), wk =   0.0625000
        k(   18) = (   0.1250000  -0.3750000   0.1250000), wk =   0.0625000
        k(   19) = (  -0.1250000  -0.3750000   0.3750000), wk =   0.0625000
        k(   20) = (  -0.1250000   0.3750000  -0.3750000), wk =   0.0625000
        k(   21) = (   0.1250000  -0.3750000  -0.3750000), wk =   0.0625000
        k(   22) = (   0.3750000   0.1250000  -0.3750000), wk =   0.0625000
        k(   23) = (  -0.3750000  -0.1250000  -0.3750000), wk =   0.0625000
        k(   24) = (   0.3750000  -0.1250000   0.3750000), wk =   0.0625000
        k(   25) = (  -0.3750000   0.1250000   0.3750000), wk =   0.0625000
        k(   26) = (   0.3750000  -0.3750000   0.1250000), wk =   0.0625000
        k(   27) = (  -0.3750000  -0.3750000  -0.1250000), wk =   0.0625000
        k(   28) = (   0.3750000   0.3750000  -0.1250000), wk =   0.0625000
        k(   29) = (  -0.3750000   0.3750000   0.1250000), wk =   0.0625000
        k(   30) = (  -0.3750000  -0.3750000   0.3750000), wk =   0.0625000
        k(   31) = (  -0.3750000   0.3750000  -0.3750000), wk =   0.0625000
        k(   32) = (   0.3750000  -0.3750000  -0.3750000), wk =   0.0625000

     Dense  grid:     2721 G-vectors     FFT dimensions: (  18,  18,  18)

     Estimated max dynamical RAM per process >       8.11 MB

     Initial potential from superposition of free atoms

     starting charge   11.99084, renormalised to   12.00000
     Starting wfcs are   16 randomized atomic wfcs
     Checking if some PAW data can be deallocated... 

     total cpu time spent up to now is        1.2 secs

     Self-consistent Calculation

     iteration #  1     ecut=    75.00 Ry     beta= 0.10
     Davidson diagonalization with overlap
     ethr =  1.00E-02,  avg # of iterations =  4.9

     total cpu time spent up to now is        2.1 secs

     total energy              =    -141.65274849 Ry
     Harris-Foulkes estimate   =    -141.80703916 Ry
     estimated scf accuracy    <       0.18111366 Ry

     iteration #  2     ecut=    75.00 Ry     beta= 0.10
     Davidson diagonalization with overlap
     ethr =  1.51E-03,  avg # of iterations =  1.0

     total cpu time spent up to now is        2.7 secs

     total energy              =    -141.16259136 Ry
     Harris-Foulkes estimate   =    -141.65532304 Ry
     estimated scf accuracy    <       0.15205826 Ry

     iteration #  3     ecut=    75.00 Ry     beta= 0.10
     Davidson diagonalization with overlap
     ethr =  1.27E-03,  avg # of iterations =  2.0

     total cpu time spent up to now is        3.3 secs

     total energy              =    -141.24359562 Ry
     Harris-Foulkes estimate   =    -141.25590121 Ry
     estimated scf accuracy    <       0.01566685 Ry

     iteration #  4     ecut=    75.00 Ry     beta= 0.10
     Davidson diagonalization with overlap
     ethr =  1.31E-04,  avg # of iterations =  1.0

     total cpu time spent up to now is        3.9 secs

     total energy              =    -141.24155411 Ry
     Harris-Foulkes estimate   =    -141.24403720 Ry
     estimated scf accuracy    <       0.01247003 Ry

     iteration #  5     ecut=    75.00 Ry     beta= 0.10
     Davidson diagonalization with overlap
     ethr =  1.04E-04,  avg # of iterations =  1.0

     total cpu time spent up to now is        4.5 secs

     total energy              =    -141.24352181 Ry
     Harris-Foulkes estimate   =    -141.24263727 Ry
     estimated scf accuracy    <       0.00074572 Ry

     iteration #  6     ecut=    75.00 Ry     beta= 0.10
     Davidson diagonalization with overlap
     ethr =  6.21E-06,  avg # of iterations =  2.8

     total cpu time spent up to now is        5.2 secs

     total energy              =    -141.24378277 Ry
     Harris-Foulkes estimate   =    -141.24378115 Ry
     estimated scf accuracy    <       0.00010517 Ry

     iteration #  7     ecut=    75.00 Ry     beta= 0.10
     Davidson diagonalization with overlap
     ethr =  8.76E-07,  avg # of iterations =  1.2

     total cpu time spent up to now is        5.8 secs

     total energy              =    -141.24277680 Ry
     Harris-Foulkes estimate   =    -141.24378402 Ry
     estimated scf accuracy    <       0.00009367 Ry

     iteration #  8     ecut=    75.00 Ry     beta= 0.10
     Davidson diagonalization with overlap
     ethr =  7.81E-07,  avg # of iterations =  2.9

     total cpu time spent up to now is        6.5 secs

     total energy              =    -141.24293124 Ry
     Harris-Foulkes estimate   =    -141.24286947 Ry
     estimated scf accuracy    <       0.00002888 Ry

     iteration #  9     ecut=    75.00 Ry     beta= 0.10
     Davidson diagonalization with overlap
     ethr =  2.41E-07,  avg # of iterations =  2.0

     total cpu time spent up to now is        7.1 secs

     total energy              =    -141.24284781 Ry
     Harris-Foulkes estimate   =    -141.24293625 Ry
     estimated scf accuracy    <       0.00000878 Ry

     iteration # 10     ecut=    75.00 Ry     beta= 0.10
     Davidson diagonalization with overlap
     ethr =  7.31E-08,  avg # of iterations =  3.0

     total cpu time spent up to now is        7.8 secs

     total energy              =    -141.24285737 Ry
     Harris-Foulkes estimate   =    -141.24285745 Ry
     estimated scf accuracy    <       0.00000148 Ry

     iteration # 11     ecut=    75.00 Ry     beta= 0.10
     Davidson diagonalization with overlap
     ethr =  1.23E-08,  avg # of iterations =  1.9

     total cpu time spent up to now is        8.4 secs

     End of self-consistent calculation

          k = 0.1250 0.1250 0.1250 (   724 PWs)   bands (ev):

    30.9135  41.4365  41.4556  41.4743  52.4293  52.4496  52.4697  54.9310
    54.9409  54.9509

          k = 0.1250 0.1250 0.3750 (   733 PWs)   bands (ev):

    34.4062  39.0125  43.9416  43.9604  51.8114  51.8286  54.8774  54.8861
    55.6925  61.5168

          k = 0.1250 0.3750 0.3750 (   723 PWs)   bands (ev):

    37.4214  41.6561  41.6931  44.5482  50.4938  52.9064  52.9555  57.0465
    57.5683  60.7358

          k = 0.3750 0.3750 0.3750 (   717 PWs)   bands (ev):

    39.8870  43.9756  44.0136  44.0514  47.7746  47.8161  47.8576  51.6501
    66.9742  66.9787

          k =-0.1250-0.1250 0.1250 (   724 PWs)   bands (ev):

    30.9135  41.4404  41.4555  41.4703  52.4335  52.4495  52.4655  54.9331
    54.9409  54.9488

          k =-0.1250 0.1250-0.1250 (   724 PWs)   bands (ev):

    30.9135  41.4443  41.4555  41.4664  52.4376  52.4495  52.4613  54.9351
    54.9409  54.9468

          k = 0.1250-0.1250-0.1250 (   724 PWs)   bands (ev):

    30.9135  41.4422  41.4555  41.4685  52.4355  52.4496  52.4635  54.9340
    54.9409  54.9478

          k =-0.1250-0.1250 0.3750 (   733 PWs)   bands (ev):

    34.4062  39.0126  43.9416  43.9604  51.8114  51.8287  54.8775  54.8861
    55.6923  61.5170

          k =-0.1250 0.1250-0.3750 (   733 PWs)   bands (ev):

    34.4062  39.0126  43.9467  43.9553  51.8160  51.8239  54.8798  54.8838
    55.6923  61.5168

          k = 0.1250-0.1250-0.3750 (   733 PWs)   bands (ev):

    34.4062  39.0125  43.9467  43.9554  51.8160  51.8239  54.8798  54.8838
    55.6925  61.5167

          k = 0.3750-0.1250 0.1250 (   733 PWs)   bands (ev):

    34.4062  39.0124  43.9467  43.9554  51.8158  51.8238  54.8799  54.8840
    55.6925  61.5170

          k =-0.3750-0.1250-0.1250 (   733 PWs)   bands (ev):

    34.4062  39.0124  43.9430  43.9591  51.8127  51.8274  54.8777  54.8851
    55.6931  61.5170

          k = 0.3750 0.1250-0.1250 (   733 PWs)   bands (ev):

    34.4062  39.0124  43.9467  43.9554  51.8158  51.8238  54.8799  54.8840
    55.6926  61.5170

          k =-0.3750 0.1250 0.1250 (   733 PWs)   bands (ev):

    34.4062  39.0125  43.9430  43.9590  51.8128  51.8275  54.8778  54.8852
    55.6927  61.5170

          k =-0.1250 0.3750 0.1250 (   733 PWs)   bands (ev):

    34.4062  39.0124  43.9500  43.9524  51.8189  51.8211  54.8811  54.8822
    55.6925  61.5169

          k =-0.1250-0.3750-0.1250 (   733 PWs)   bands (ev):

    34.4062  39.0123  43.9465  43.9559  51.8156  51.8242  54.8796  54.8839
    55.6925  61.5170

          k = 0.1250 0.3750-0.1250 (   733 PWs)   bands (ev):

    34.4062  39.0124  43.9500  43.9524  51.8189  51.8211  54.8810  54.8822
    55.6928  61.5169

          k = 0.1250-0.3750 0.1250 (   733 PWs)   bands (ev):

    34.4062  39.0124  43.9465  43.9559  51.8156  51.8243  54.8796  54.8839
    55.6924  61.5170

          k =-0.1250-0.3750 0.3750 (   723 PWs)   bands (ev):

    37.4213  41.6646  41.6847  44.5480  50.4939  52.9175  52.9443  57.0459
    57.5692  60.7344

          k =-0.1250 0.3750-0.3750 (   723 PWs)   bands (ev):

    37.4213  41.6646  41.6847  44.5480  50.4939  52.9174  52.9442  57.0455
    57.5697  60.7361

          k = 0.1250-0.3750-0.3750 (   723 PWs)   bands (ev):

    37.4213  41.6561  41.6931  44.5482  50.4938  52.9064  52.9555  57.0461
    57.5685  60.7342

          k = 0.3750 0.1250-0.3750 (   723 PWs)   bands (ev):

    37.4213  41.6718  41.6773  44.5480  50.4937  52.9273  52.9347  57.0465
    57.5685  60.7363

          k =-0.3750-0.1250-0.3750 (   723 PWs)   bands (ev):

    37.4213  41.6637  41.6854  44.5479  50.4940  52.9166  52.9455  57.0467
    57.5681  60.7344

          k = 0.3750-0.1250 0.3750 (   723 PWs)   bands (ev):

    37.4213  41.6638  41.6855  44.5480  50.4938  52.9165  52.9454  57.0469
    57.5682  60.7361

          k =-0.3750 0.1250 0.3750 (   723 PWs)   bands (ev):

    37.4213  41.6718  41.6774  44.5480  50.4938  52.9274  52.9348  57.0462
    57.5685  60.7368

          k = 0.3750-0.3750 0.1250 (   723 PWs)   bands (ev):

    37.4214  41.6647  41.6845  44.5481  50.4936  52.9176  52.9441  57.0468
    57.5683  60.7364

          k =-0.3750-0.3750-0.1250 (   723 PWs)   bands (ev):

    37.4214  41.6529  41.6963  44.5480  50.4939  52.9020  52.9598  57.0447
    57.5702  60.7316

          k = 0.3750 0.3750-0.1250 (   723 PWs)   bands (ev):

    37.4214  41.6529  41.6963  44.5480  50.4938  52.9020  52.9597  57.0468
    57.5682  60.7315

          k =-0.3750 0.3750 0.1250 (   723 PWs)   bands (ev):

    37.4214  41.6647  41.6845  44.5481  50.4939  52.9177  52.9443  57.0421
    57.5728  60.7382

          k =-0.3750-0.3750 0.3750 (   717 PWs)   bands (ev):

    39.8869  43.9836  44.0137  44.0434  47.7833  47.8160  47.8489  51.6503
    66.9735  66.9764

          k =-0.3750 0.3750-0.3750 (   717 PWs)   bands (ev):

    39.8869  43.9913  44.0136  44.0356  47.7918  47.8161  47.8403  51.6503
    66.9744  66.9774

          k = 0.3750-0.3750-0.3750 (   717 PWs)   bands (ev):

    39.8869  43.9872  44.0135  44.0397  47.7874  47.8161  47.8450  51.6502
    66.9741  66.9782

     the Fermi energy is    52.6611 ev

!    total energy              =    -141.24285712 Ry
     Harris-Foulkes estimate   =    -141.24285753 Ry
     estimated scf accuracy    <       0.00000091 Ry

     total all-electron energy =     -1925.813979 Ry

     The total energy is the sum of the following terms:

     one-electron contribution =      58.67272213 Ry
     hartree contribution      =       0.21195739 Ry
     xc contribution           =     -17.28524590 Ry
     ewald contribution        =     -40.85514779 Ry
     one-center paw contrib.   =    -141.98650944 Ry
     smearing contrib. (-TS)   =      -0.00063351 Ry

     convergence has been achieved in  11 iterations

     Forces acting on atoms (cartesian axes, Ry/au):

     atom    1 type  1   force =     0.00201886   -0.00041513    0.01639257
     atom    2 type  1   force =    -0.00327096    0.00369127    0.01636470
     atom    3 type  1   force =    -0.00056388   -0.00064498   -0.01728161
     atom    4 type  1   force =     0.00181597   -0.00263117   -0.01547567

     Total force =     0.033380     Total SCF correction =     0.000014


     Computing stress (Cartesian axis) and pressure

          total   stress  (Ry/bohr**3)                   (kbar)     P=59673.42
   0.40565717   0.00000109   0.00000096      59674.22      0.16      0.14
   0.00000109   0.40564575  -0.00000081          0.16  59672.54     -0.12
   0.00000096  -0.00000081   0.40565224          0.14     -0.12  59673.49


     Writing output data file fe_scf_fcc_2.save/

     init_run     :      0.73s CPU      0.74s WALL (       1 calls)
     electrons    :      7.12s CPU      7.25s WALL (       1 calls)
     forces       :      0.06s CPU      0.06s WALL (       1 calls)
     stress       :      0.18s CPU      0.18s WALL (       1 calls)

     Called by init_run:
     wfcinit      :      0.22s CPU      0.22s WALL (       1 calls)
     potinit      :      0.25s CPU      0.26s WALL (       1 calls)
     hinit0       :      0.25s CPU      0.25s WALL (       1 calls)

     Called by electrons:
     c_bands      :      3.68s CPU      3.73s WALL (      11 calls)
     sum_band     :      0.74s CPU      0.74s WALL (      11 calls)
     v_of_rho     :      0.06s CPU      0.05s WALL (      12 calls)
     newd         :      0.04s CPU      0.05s WALL (      12 calls)
     PAW_pot      :      2.85s CPU      2.92s WALL (      12 calls)
     mix_rho      :      0.01s CPU      0.01s WALL (      11 calls)

     Called by c_bands:
     init_us_2    :      0.20s CPU      0.19s WALL (     800 calls)
     cegterg      :      3.42s CPU      3.44s WALL (     352 calls)

     Called by sum_band:
     sum_band:bec :      0.00s CPU      0.00s WALL (     352 calls)
     addusdens    :      0.02s CPU      0.03s WALL (      11 calls)

     Called by *egterg:
     h_psi        :      2.75s CPU      2.81s WALL (    1140 calls)
     s_psi        :      0.21s CPU      0.16s WALL (    1140 calls)
     g_psi        :      0.02s CPU      0.03s WALL (     756 calls)
     cdiaghg      :      0.18s CPU      0.19s WALL (    1108 calls)

     Called by h_psi:
     h_psi:pot    :      2.73s CPU      2.80s WALL (    1140 calls)
     h_psi:calbec :      0.24s CPU      0.16s WALL (    1140 calls)
     vloc_psi     :      2.32s CPU      2.47s WALL (    1140 calls)
     add_vuspsi   :      0.17s CPU      0.17s WALL (    1140 calls)

     General routines
     calbec       :      0.36s CPU      0.24s WALL (    1652 calls)
     fft          :      0.04s CPU      0.03s WALL (     158 calls)
     ffts         :      0.01s CPU      0.00s WALL (      11 calls)
     fftw         :      2.61s CPU      2.81s WALL (   22346 calls)

     Parallel routines

     PWSCF        :     8.52s CPU         8.66s WALL


   This run was terminated on:   1: 8:10  20Oct2019            

=------------------------------------------------------------------------------=
   JOB DONE.
=------------------------------------------------------------------------------=
