
     Program PWSCF v.6.3 starts on 20Oct2019 at  1: 6:48 

     This program is part of the open-source Quantum ESPRESSO suite
     for quantum simulation of materials; please cite
         "P. Giannozzi et al., J. Phys.:Condens. Matter 21 395502 (2009);
         "P. Giannozzi et al., J. Phys.:Condens. Matter 29 465901 (2017);
          URL http://www.quantum-espresso.org", 
     in publications or presentations arising from this work. More details at
     http://www.quantum-espresso.org/quote

     Parallel version (MPI), running on     1 processors

     MPI processes distributed on     1 nodes
     Reading input from /cloud/Code/python/py_pwscf_converge/src/example/wd/runpwscf/file_10020.in
Warning: card &IONS ignored
Warning: card ION_DYNAMICS = 'BFGS', ignored
Warning: card / ignored
Warning: card &CELL ignored
Warning: card CELL_DYNAMICS = 'BFGS', ignored
Warning: card CELL_FACTOR = 2.0, ignored
Warning: card PRESS = 0.0, ignored
Warning: card / ignored

     Current dimensions of program PWSCF are:
     Max number of different atomic species (ntypx) = 10
     Max number of k-points (npk) =  40000
     Max angular momentum in pseudopotentials (lmaxx) =  3
               file Al.pbe-nl-kjpaw_psl.1.0.0.UPF: wavefunction(s)  3S 3P renormalized

     Subspace diagonalization in iterative solution of the eigenvalue problem:
     a serial algorithm will be used


     G-vector sticks info
     --------------------
     sticks:   dense  smooth     PW     G-vecs:    dense   smooth      PW
     Sum         177     177    113                 1839     1839     925



     bravais-lattice index     =            0
     lattice parameter (alat)  =       4.0400  a.u.
     unit-cell volume          =      65.9393 (a.u.)^3
     number of atoms/cell      =            4
     number of atomic types    =            1
     number of electrons       =        12.00
     number of Kohn-Sham states=           10
     kinetic-energy cutoff     =      70.0000  Ry
     charge density cutoff     =     140.0000  Ry
     convergence threshold     =      1.0E-06
     mixing beta               =       0.1000
     number of iterations used =           10  TF        mixing
     Exchange-correlation      = SLA PW PBX PBC ( 1  4  3  4 0 0)

     celldm(1)=   4.040000  celldm(2)=   0.000000  celldm(3)=   0.000000
     celldm(4)=   0.000000  celldm(5)=   0.000000  celldm(6)=   0.000000

     crystal axes: (cart. coord. in units of alat)
               a(1) = (   1.000000   0.000000   0.000000 )  
               a(2) = (   0.000000   1.000000   0.000000 )  
               a(3) = (   0.000000   0.000000   1.000000 )  

     reciprocal axes: (cart. coord. in units 2 pi/alat)
               b(1) = (  1.000000  0.000000  0.000000 )  
               b(2) = (  0.000000  1.000000  0.000000 )  
               b(3) = (  0.000000  0.000000  1.000000 )  


     PseudoPot. # 1 for Al read from file:
     /opt/pp/Al.pbe-nl-kjpaw_psl.1.0.0.UPF
     MD5 check sum: 1b67f78b73fe58c7924490f171ce8a1e
     Pseudo is Projector augmented-wave + core cor, Zval =  3.0
     Generated using "atomic" code by A. Dal Corso v.6.3
     Shape of augmentation charge: PSQ
     Using radial grid of 1135 points,  4 beta functions with: 
                l(1) =   0
                l(2) =   0
                l(3) =   1
                l(4) =   1
     Q(r) pseudized with 0 coefficients 


     atomic species   valence    mass     pseudopotential
        Al             3.00    26.98200     Al( 1.00)

     No symmetry found



   Cartesian axes

     site n.     atom                  positions (alat units)
         1           Al  tau(   1) = (  -0.0001235   0.0000359   0.0002572  )
         2           Al  tau(   2) = (   0.5003009   0.4992819   0.0002658  )
         3           Al  tau(   3) = (   0.4996490   0.0001153   0.5011170  )
         4           Al  tau(   4) = (  -0.0000756   0.5008267   0.5006943  )

     number of k points=    32  Marzari-Vanderbilt smearing, width (Ry)=  0.0200
                       cart. coord. in units 2pi/alat
        k(    1) = (   0.1250000   0.1250000   0.1250000), wk =   0.0625000
        k(    2) = (   0.1250000   0.1250000   0.3750000), wk =   0.0625000
        k(    3) = (   0.1250000   0.3750000   0.3750000), wk =   0.0625000
        k(    4) = (   0.3750000   0.3750000   0.3750000), wk =   0.0625000
        k(    5) = (  -0.1250000  -0.1250000   0.1250000), wk =   0.0625000
        k(    6) = (  -0.1250000   0.1250000  -0.1250000), wk =   0.0625000
        k(    7) = (   0.1250000  -0.1250000  -0.1250000), wk =   0.0625000
        k(    8) = (  -0.1250000  -0.1250000   0.3750000), wk =   0.0625000
        k(    9) = (  -0.1250000   0.1250000  -0.3750000), wk =   0.0625000
        k(   10) = (   0.1250000  -0.1250000  -0.3750000), wk =   0.0625000
        k(   11) = (   0.3750000  -0.1250000   0.1250000), wk =   0.0625000
        k(   12) = (  -0.3750000  -0.1250000  -0.1250000), wk =   0.0625000
        k(   13) = (   0.3750000   0.1250000  -0.1250000), wk =   0.0625000
        k(   14) = (  -0.3750000   0.1250000   0.1250000), wk =   0.0625000
        k(   15) = (  -0.1250000   0.3750000   0.1250000), wk =   0.0625000
        k(   16) = (  -0.1250000  -0.3750000  -0.1250000), wk =   0.0625000
        k(   17) = (   0.1250000   0.3750000  -0.1250000), wk =   0.0625000
        k(   18) = (   0.1250000  -0.3750000   0.1250000), wk =   0.0625000
        k(   19) = (  -0.1250000  -0.3750000   0.3750000), wk =   0.0625000
        k(   20) = (  -0.1250000   0.3750000  -0.3750000), wk =   0.0625000
        k(   21) = (   0.1250000  -0.3750000  -0.3750000), wk =   0.0625000
        k(   22) = (   0.3750000   0.1250000  -0.3750000), wk =   0.0625000
        k(   23) = (  -0.3750000  -0.1250000  -0.3750000), wk =   0.0625000
        k(   24) = (   0.3750000  -0.1250000   0.3750000), wk =   0.0625000
        k(   25) = (  -0.3750000   0.1250000   0.3750000), wk =   0.0625000
        k(   26) = (   0.3750000  -0.3750000   0.1250000), wk =   0.0625000
        k(   27) = (  -0.3750000  -0.3750000  -0.1250000), wk =   0.0625000
        k(   28) = (   0.3750000   0.3750000  -0.1250000), wk =   0.0625000
        k(   29) = (  -0.3750000   0.3750000   0.1250000), wk =   0.0625000
        k(   30) = (  -0.3750000  -0.3750000   0.3750000), wk =   0.0625000
        k(   31) = (  -0.3750000   0.3750000  -0.3750000), wk =   0.0625000
        k(   32) = (   0.3750000  -0.3750000  -0.3750000), wk =   0.0625000

     Dense  grid:     1839 G-vectors     FFT dimensions: (  15,  15,  15)

     Estimated max dynamical RAM per process >       6.39 MB

     Initial potential from superposition of free atoms

     starting charge   11.99084, renormalised to   12.00000
     Starting wfcs are   16 randomized atomic wfcs
     Checking if some PAW data can be deallocated... 

     total cpu time spent up to now is        1.0 secs

     Self-consistent Calculation

     iteration #  1     ecut=    70.00 Ry     beta= 0.10
     Davidson diagonalization with overlap
     ethr =  1.00E-02,  avg # of iterations =  4.9

     total cpu time spent up to now is        1.6 secs

     total energy              =    -141.65277781 Ry
     Harris-Foulkes estimate   =    -141.80706551 Ry
     estimated scf accuracy    <       0.18108438 Ry

     iteration #  2     ecut=    70.00 Ry     beta= 0.10
     Davidson diagonalization with overlap
     ethr =  1.51E-03,  avg # of iterations =  1.0

     total cpu time spent up to now is        2.0 secs

     total energy              =    -141.16264457 Ry
     Harris-Foulkes estimate   =    -141.65528626 Ry
     estimated scf accuracy    <       0.15210856 Ry

     iteration #  3     ecut=    70.00 Ry     beta= 0.10
     Davidson diagonalization with overlap
     ethr =  1.27E-03,  avg # of iterations =  2.0

     total cpu time spent up to now is        2.5 secs

     total energy              =    -141.24382907 Ry
     Harris-Foulkes estimate   =    -141.25648799 Ry
     estimated scf accuracy    <       0.01575637 Ry

     iteration #  4     ecut=    70.00 Ry     beta= 0.10
     Davidson diagonalization with overlap
     ethr =  1.31E-04,  avg # of iterations =  1.0

     total cpu time spent up to now is        2.9 secs

     total energy              =    -141.24143780 Ry
     Harris-Foulkes estimate   =    -141.24427172 Ry
     estimated scf accuracy    <       0.01252523 Ry

     iteration #  5     ecut=    70.00 Ry     beta= 0.10
     Davidson diagonalization with overlap
     ethr =  1.04E-04,  avg # of iterations =  1.0

     total cpu time spent up to now is        3.3 secs

     total energy              =    -141.24344436 Ry
     Harris-Foulkes estimate   =    -141.24252136 Ry
     estimated scf accuracy    <       0.00074460 Ry

     iteration #  6     ecut=    70.00 Ry     beta= 0.10
     Davidson diagonalization with overlap
     ethr =  6.20E-06,  avg # of iterations =  2.8

     total cpu time spent up to now is        3.8 secs

     total energy              =    -141.24369834 Ry
     Harris-Foulkes estimate   =    -141.24370787 Ry
     estimated scf accuracy    <       0.00009830 Ry

     iteration #  7     ecut=    70.00 Ry     beta= 0.10
     Davidson diagonalization with overlap
     ethr =  8.19E-07,  avg # of iterations =  1.1

     total cpu time spent up to now is        4.2 secs

     total energy              =    -141.24269559 Ry
     Harris-Foulkes estimate   =    -141.24369954 Ry
     estimated scf accuracy    <       0.00008265 Ry

     iteration #  8     ecut=    70.00 Ry     beta= 0.10
     Davidson diagonalization with overlap
     ethr =  6.89E-07,  avg # of iterations =  2.9

     total cpu time spent up to now is        4.6 secs

     total energy              =    -141.24282399 Ry
     Harris-Foulkes estimate   =    -141.24277288 Ry
     estimated scf accuracy    <       0.00001319 Ry

     iteration #  9     ecut=    70.00 Ry     beta= 0.10
     Davidson diagonalization with overlap
     ethr =  1.10E-07,  avg # of iterations =  2.0

     total cpu time spent up to now is        5.1 secs

     total energy              =    -141.24273305 Ry
     Harris-Foulkes estimate   =    -141.24282586 Ry
     estimated scf accuracy    <       0.00000803 Ry

     iteration # 10     ecut=    70.00 Ry     beta= 0.10
     Davidson diagonalization with overlap
     ethr =  6.69E-08,  avg # of iterations =  3.0

     total cpu time spent up to now is        5.5 secs

     End of self-consistent calculation

          k = 0.1250 0.1250 0.1250 (   666 PWs)   bands (ev):

    30.9166  41.4381  41.4561  41.4759  52.4299  52.4502  52.4703  54.9343
    54.9441  54.9541

          k = 0.1250 0.1250 0.3750 (   655 PWs)   bands (ev):

    34.4094  39.0154  43.9434  43.9623  51.8134  51.8306  54.8796  54.8883
    55.6932  61.5179

          k = 0.1250 0.3750 0.3750 (   646 PWs)   bands (ev):

    37.4246  41.6591  41.6961  44.5511  50.4955  52.9081  52.9572  57.0479
    57.5697  60.7360

          k = 0.3750 0.3750 0.3750 (   657 PWs)   bands (ev):

    39.8900  43.9788  44.0163  44.0545  47.7766  47.8181  47.8596  51.6520
    66.9752  66.9791

          k =-0.1250-0.1250 0.1250 (   666 PWs)   bands (ev):

    30.9166  41.4419  41.4563  41.4718  52.4342  52.4501  52.4661  54.9363
    54.9441  54.9520

          k =-0.1250 0.1250-0.1250 (   666 PWs)   bands (ev):

    30.9166  41.4454  41.4571  41.4675  52.4383  52.4501  52.4619  54.9384
    54.9441  54.9500

          k = 0.1250-0.1250-0.1250 (   666 PWs)   bands (ev):

    30.9166  41.4436  41.4566  41.4698  52.4361  52.4502  52.4641  54.9373
    54.9441  54.9510

          k =-0.1250-0.1250 0.3750 (   655 PWs)   bands (ev):

    34.4094  39.0154  43.9434  43.9622  51.8134  51.8307  54.8797  54.8883
    55.6929  61.5180

          k =-0.1250 0.1250-0.3750 (   655 PWs)   bands (ev):

    34.4094  39.0154  43.9485  43.9572  51.8180  51.8259  54.8820  54.8860
    55.6930  61.5178

          k = 0.1250-0.1250-0.3750 (   655 PWs)   bands (ev):

    34.4094  39.0154  43.9486  43.9572  51.8180  51.8259  54.8820  54.8860
    55.6932  61.5174

          k = 0.3750-0.1250 0.1250 (   655 PWs)   bands (ev):

    34.4094  39.0153  43.9485  43.9573  51.8178  51.8258  54.8821  54.8862
    55.6932  61.5179

          k =-0.3750-0.1250-0.1250 (   655 PWs)   bands (ev):

    34.4094  39.0152  43.9449  43.9609  51.8148  51.8294  54.8799  54.8873
    55.6938  61.5181

          k = 0.3750 0.1250-0.1250 (   655 PWs)   bands (ev):

    34.4094  39.0153  43.9485  43.9573  51.8178  51.8258  54.8821  54.8862
    55.6932  61.5180

          k =-0.3750 0.1250 0.1250 (   655 PWs)   bands (ev):

    34.4094  39.0153  43.9448  43.9609  51.8148  51.8295  54.8800  54.8874
    55.6934  61.5181

          k =-0.1250 0.3750 0.1250 (   655 PWs)   bands (ev):

    34.4094  39.0152  43.9518  43.9542  51.8209  51.8231  54.8833  54.8844
    55.6931  61.5180

          k =-0.1250-0.3750-0.1250 (   655 PWs)   bands (ev):

    34.4094  39.0152  43.9483  43.9578  51.8176  51.8262  54.8818  54.8861
    55.6932  61.5180

          k = 0.1250 0.3750-0.1250 (   655 PWs)   bands (ev):

    34.4094  39.0152  43.9518  43.9543  51.8209  51.8231  54.8831  54.8844
    55.6935  61.5179

          k = 0.1250-0.3750 0.1250 (   655 PWs)   bands (ev):

    34.4094  39.0152  43.9483  43.9577  51.8177  51.8263  54.8818  54.8861
    55.6931  61.5180

          k =-0.1250-0.3750 0.3750 (   646 PWs)   bands (ev):

    37.4246  41.6676  41.6878  44.5509  50.4957  52.9191  52.9460  57.0472
    57.5706  60.7362

          k =-0.1250 0.3750-0.3750 (   646 PWs)   bands (ev):

    37.4245  41.6676  41.6878  44.5509  50.4956  52.9191  52.9459  57.0469
    57.5711  60.7364

          k = 0.1250-0.3750-0.3750 (   646 PWs)   bands (ev):

    37.4246  41.6592  41.6961  44.5511  50.4955  52.9081  52.9572  57.0475
    57.5699  60.7347

          k = 0.3750 0.1250-0.3750 (   646 PWs)   bands (ev):

    37.4246  41.6748  41.6804  44.5509  50.4955  52.9290  52.9364  57.0479
    57.5699  60.7385

          k =-0.3750-0.1250-0.3750 (   646 PWs)   bands (ev):

    37.4246  41.6668  41.6885  44.5508  50.4958  52.9183  52.9471  57.0481
    57.5695  60.7356

          k = 0.3750-0.1250 0.3750 (   646 PWs)   bands (ev):

    37.4246  41.6668  41.6885  44.5509  50.4956  52.9182  52.9470  57.0483
    57.5696  60.7366

          k =-0.3750 0.1250 0.3750 (   646 PWs)   bands (ev):

    37.4246  41.6748  41.6804  44.5509  50.4956  52.9291  52.9365  57.0476
    57.5699  60.7379

          k = 0.3750-0.3750 0.1250 (   646 PWs)   bands (ev):

    37.4246  41.6677  41.6875  44.5510  50.4953  52.9193  52.9458  57.0482
    57.5697  60.7357

          k =-0.3750-0.3750-0.1250 (   646 PWs)   bands (ev):

    37.4247  41.6560  41.6993  44.5509  50.4957  52.9037  52.9615  57.0460
    57.5717  60.7318

          k = 0.3750 0.3750-0.1250 (   646 PWs)   bands (ev):

    37.4246  41.6560  41.6993  44.5509  50.4955  52.9036  52.9614  57.0482
    57.5696  60.7320

          k =-0.3750 0.3750 0.1250 (   646 PWs)   bands (ev):

    37.4246  41.6677  41.6875  44.5510  50.4956  52.9194  52.9459  57.0435
    57.5742  60.7387

          k =-0.3750-0.3750 0.3750 (   657 PWs)   bands (ev):

    39.8899  43.9866  44.0164  44.0464  47.7853  47.8181  47.8509  51.6521
    66.9747  66.9788

          k =-0.3750 0.3750-0.3750 (   657 PWs)   bands (ev):

    39.8899  43.9942  44.0167  44.0385  47.7938  47.8181  47.8424  51.6522
    66.9752  66.9779

          k = 0.3750-0.3750-0.3750 (   657 PWs)   bands (ev):

    39.8899  43.9902  44.0164  44.0427  47.7894  47.8182  47.8470  51.6520
    66.9749  66.9770

     the Fermi energy is    52.6620 ev

!    total energy              =    -141.24274248 Ry
     Harris-Foulkes estimate   =    -141.24274324 Ry
     estimated scf accuracy    <       0.00000071 Ry

     total all-electron energy =     -1925.813865 Ry

     The total energy is the sum of the following terms:

     one-electron contribution =      58.67253339 Ry
     hartree contribution      =       0.21196758 Ry
     xc contribution           =     -17.28522596 Ry
     ewald contribution        =     -40.85514766 Ry
     one-center paw contrib.   =    -141.98625320 Ry
     smearing contrib. (-TS)   =      -0.00061663 Ry

     convergence has been achieved in  10 iterations

     Forces acting on atoms (cartesian axes, Ry/au):

     atom    1 type  1   force =     0.00202937   -0.00041387    0.01637639
     atom    2 type  1   force =    -0.00327930    0.00369449    0.01634862
     atom    3 type  1   force =    -0.00057062   -0.00064263   -0.01726941
     atom    4 type  1   force =     0.00182054   -0.00263799   -0.01545561

     Total force =     0.033351     Total SCF correction =     0.000025


     Computing stress (Cartesian axis) and pressure

          total   stress  (Ry/bohr**3)                   (kbar)     P=59671.12
   0.40564148   0.00000117   0.00000095      59671.91      0.17      0.14
   0.00000117   0.40563039  -0.00000085          0.17  59670.28     -0.12
   0.00000095  -0.00000085   0.40563649          0.14     -0.12  59671.18


     Writing output data file fe_scf_fcc_2.save/

     init_run     :      0.59s CPU      0.60s WALL (       1 calls)
     electrons    :      4.40s CPU      4.53s WALL (       1 calls)
     forces       :      0.04s CPU      0.04s WALL (       1 calls)
     stress       :      0.15s CPU      0.16s WALL (       1 calls)

     Called by init_run:
     wfcinit      :      0.12s CPU      0.12s WALL (       1 calls)
     potinit      :      0.24s CPU      0.25s WALL (       1 calls)
     hinit0       :      0.22s CPU      0.23s WALL (       1 calls)

     Called by electrons:
     c_bands      :      1.74s CPU      1.77s WALL (      10 calls)
     sum_band     :      0.27s CPU      0.27s WALL (      10 calls)
     v_of_rho     :      0.02s CPU      0.02s WALL (      11 calls)
     newd         :      0.02s CPU      0.03s WALL (      11 calls)
     PAW_pot      :      2.58s CPU      2.68s WALL (      11 calls)
     mix_rho      :      0.00s CPU      0.00s WALL (      10 calls)

     Called by c_bands:
     init_us_2    :      0.14s CPU      0.15s WALL (     736 calls)
     cegterg      :      1.56s CPU      1.54s WALL (     320 calls)

     Called by sum_band:
     sum_band:bec :      0.00s CPU      0.00s WALL (     320 calls)
     addusdens    :      0.02s CPU      0.02s WALL (      10 calls)

     Called by *egterg:
     h_psi        :      0.95s CPU      0.94s WALL (    1043 calls)
     s_psi        :      0.14s CPU      0.13s WALL (    1043 calls)
     g_psi        :      0.02s CPU      0.02s WALL (     691 calls)
     cdiaghg      :      0.14s CPU      0.17s WALL (    1011 calls)

     Called by h_psi:
     h_psi:pot    :      0.94s CPU      0.92s WALL (    1043 calls)
     h_psi:calbec :      0.14s CPU      0.13s WALL (    1043 calls)
     vloc_psi     :      0.65s CPU      0.65s WALL (    1043 calls)
     add_vuspsi   :      0.15s CPU      0.14s WALL (    1043 calls)

     General routines
     calbec       :      0.19s CPU      0.20s WALL (    1523 calls)
     fft          :      0.00s CPU      0.00s WALL (     147 calls)
     ffts         :      0.00s CPU      0.00s WALL (      10 calls)
     fftw         :      0.63s CPU      0.64s WALL (   20714 calls)

     Parallel routines

     PWSCF        :     5.60s CPU         5.77s WALL


   This run was terminated on:   1: 6:54  20Oct2019            

=------------------------------------------------------------------------------=
   JOB DONE.
=------------------------------------------------------------------------------=
