
     Program PWSCF v.6.3 starts on 22Oct2019 at  0:46:49 

     This program is part of the open-source Quantum ESPRESSO suite
     for quantum simulation of materials; please cite
         "P. Giannozzi et al., J. Phys.:Condens. Matter 21 395502 (2009);
         "P. Giannozzi et al., J. Phys.:Condens. Matter 29 465901 (2017);
          URL http://www.quantum-espresso.org", 
     in publications or presentations arising from this work. More details at
     http://www.quantum-espresso.org/quote

     Parallel version (MPI), running on     1 processors

     MPI processes distributed on     1 nodes
     Reading input from /cloud/Code/python/py_pwscf_converge/src/example/wd/runpwscf/file_10242.in
Warning: card &IONS ignored
Warning: card ION_DYNAMICS = 'BFGS', ignored
Warning: card / ignored
Warning: card &CELL ignored
Warning: card CELL_DYNAMICS = 'BFGS', ignored
Warning: card CELL_FACTOR = 2.0, ignored
Warning: card PRESS = 0.0, ignored
Warning: card / ignored

     Current dimensions of program PWSCF are:
     Max number of different atomic species (ntypx) = 10
     Max number of k-points (npk) =  40000
     Max angular momentum in pseudopotentials (lmaxx) =  3
               file Al.pbe-nl-kjpaw_psl.1.0.0.UPF: wavefunction(s)  3S 3P renormalized

     Subspace diagonalization in iterative solution of the eigenvalue problem:
     a serial algorithm will be used


     G-vector sticks info
     --------------------
     sticks:   dense  smooth     PW     G-vecs:    dense   smooth      PW
     Sum         261     261    121                 3119     3119     949



     bravais-lattice index     =            0
     lattice parameter (alat)  =       4.0400  a.u.
     unit-cell volume          =      65.9393 (a.u.)^3
     number of atoms/cell      =            4
     number of atomic types    =            1
     number of electrons       =        12.00
     number of Kohn-Sham states=           10
     kinetic-energy cutoff     =      66.0000  Ry
     charge density cutoff     =     200.0000  Ry
     convergence threshold     =      1.0E-06
     mixing beta               =       0.1000
     number of iterations used =           10  TF        mixing
     Exchange-correlation      = SLA PW PBX PBC ( 1  4  3  4 0 0)

     celldm(1)=   4.040000  celldm(2)=   0.000000  celldm(3)=   0.000000
     celldm(4)=   0.000000  celldm(5)=   0.000000  celldm(6)=   0.000000

     crystal axes: (cart. coord. in units of alat)
               a(1) = (   1.000000   0.000000   0.000000 )  
               a(2) = (   0.000000   1.000000   0.000000 )  
               a(3) = (   0.000000   0.000000   1.000000 )  

     reciprocal axes: (cart. coord. in units 2 pi/alat)
               b(1) = (  1.000000  0.000000  0.000000 )  
               b(2) = (  0.000000  1.000000  0.000000 )  
               b(3) = (  0.000000  0.000000  1.000000 )  


     PseudoPot. # 1 for Al read from file:
     /opt/pp/Al.pbe-nl-kjpaw_psl.1.0.0.UPF
     MD5 check sum: 1b67f78b73fe58c7924490f171ce8a1e
     Pseudo is Projector augmented-wave + core cor, Zval =  3.0
     Generated using "atomic" code by A. Dal Corso v.6.3
     Shape of augmentation charge: PSQ
     Using radial grid of 1135 points,  4 beta functions with: 
                l(1) =   0
                l(2) =   0
                l(3) =   1
                l(4) =   1
     Q(r) pseudized with 0 coefficients 


     atomic species   valence    mass     pseudopotential
        Al             3.00    26.98200     Al( 1.00)

     No symmetry found



   Cartesian axes

     site n.     atom                  positions (alat units)
         1           Al  tau(   1) = (  -0.0001235   0.0000359   0.0002572  )
         2           Al  tau(   2) = (   0.5003009   0.4992819   0.0002658  )
         3           Al  tau(   3) = (   0.4996490   0.0001153   0.5011170  )
         4           Al  tau(   4) = (  -0.0000756   0.5008267   0.5006943  )

     number of k points=    63  Marzari-Vanderbilt smearing, width (Ry)=  0.5000
                       cart. coord. in units 2pi/alat
        k(    1) = (   0.1000000   0.1000000   0.1000000), wk =   0.0320000
        k(    2) = (   0.1000000   0.1000000   0.3000000), wk =   0.0320000
        k(    3) = (   0.1000000   0.1000000  -0.5000000), wk =   0.0320000
        k(    4) = (   0.1000000   0.3000000   0.3000000), wk =   0.0320000
        k(    5) = (   0.1000000   0.3000000  -0.5000000), wk =   0.0320000
        k(    6) = (   0.1000000  -0.5000000  -0.5000000), wk =   0.0320000
        k(    7) = (   0.3000000   0.3000000   0.3000000), wk =   0.0320000
        k(    8) = (   0.3000000   0.3000000  -0.5000000), wk =   0.0320000
        k(    9) = (   0.3000000  -0.5000000  -0.5000000), wk =   0.0320000
        k(   10) = (  -0.5000000  -0.5000000  -0.5000000), wk =   0.0160000
        k(   11) = (  -0.1000000  -0.1000000   0.1000000), wk =   0.0320000
        k(   12) = (  -0.1000000   0.1000000  -0.1000000), wk =   0.0320000
        k(   13) = (   0.1000000  -0.1000000  -0.1000000), wk =   0.0320000
        k(   14) = (  -0.1000000  -0.1000000   0.3000000), wk =   0.0320000
        k(   15) = (  -0.1000000   0.1000000  -0.3000000), wk =   0.0320000
        k(   16) = (   0.1000000  -0.1000000  -0.3000000), wk =   0.0320000
        k(   17) = (   0.3000000  -0.1000000   0.1000000), wk =   0.0320000
        k(   18) = (  -0.3000000  -0.1000000  -0.1000000), wk =   0.0320000
        k(   19) = (   0.3000000   0.1000000  -0.1000000), wk =   0.0320000
        k(   20) = (  -0.3000000   0.1000000   0.1000000), wk =   0.0320000
        k(   21) = (  -0.1000000   0.3000000   0.1000000), wk =   0.0320000
        k(   22) = (  -0.1000000  -0.3000000  -0.1000000), wk =   0.0320000
        k(   23) = (   0.1000000   0.3000000  -0.1000000), wk =   0.0320000
        k(   24) = (   0.1000000  -0.3000000   0.1000000), wk =   0.0320000
        k(   25) = (  -0.1000000   0.1000000   0.5000000), wk =   0.0320000
        k(   26) = (  -0.5000000  -0.1000000   0.1000000), wk =   0.0320000
        k(   27) = (   0.5000000  -0.1000000  -0.1000000), wk =   0.0320000
        k(   28) = (  -0.1000000  -0.5000000   0.1000000), wk =   0.0320000
        k(   29) = (  -0.1000000   0.5000000  -0.1000000), wk =   0.0320000
        k(   30) = (  -0.1000000  -0.3000000   0.3000000), wk =   0.0320000
        k(   31) = (  -0.1000000   0.3000000  -0.3000000), wk =   0.0320000
        k(   32) = (   0.1000000  -0.3000000  -0.3000000), wk =   0.0320000
        k(   33) = (   0.3000000   0.1000000  -0.3000000), wk =   0.0320000
        k(   34) = (  -0.3000000  -0.1000000  -0.3000000), wk =   0.0320000
        k(   35) = (   0.3000000  -0.1000000   0.3000000), wk =   0.0320000
        k(   36) = (  -0.3000000   0.1000000   0.3000000), wk =   0.0320000
        k(   37) = (   0.3000000  -0.3000000   0.1000000), wk =   0.0320000
        k(   38) = (  -0.3000000  -0.3000000  -0.1000000), wk =   0.0320000
        k(   39) = (   0.3000000   0.3000000  -0.1000000), wk =   0.0320000
        k(   40) = (  -0.3000000   0.3000000   0.1000000), wk =   0.0320000
        k(   41) = (  -0.1000000   0.3000000   0.5000000), wk =   0.0320000
        k(   42) = (   0.3000000   0.1000000   0.5000000), wk =   0.0320000
        k(   43) = (   0.3000000  -0.1000000  -0.5000000), wk =   0.0320000
        k(   44) = (  -0.5000000  -0.3000000   0.1000000), wk =   0.0320000
        k(   45) = (   0.5000000  -0.3000000  -0.1000000), wk =   0.0320000
        k(   46) = (  -0.1000000  -0.5000000   0.3000000), wk =   0.0320000
        k(   47) = (  -0.1000000   0.5000000  -0.3000000), wk =   0.0320000
        k(   48) = (   0.3000000  -0.5000000   0.1000000), wk =   0.0320000
        k(   49) = (   0.3000000   0.5000000  -0.1000000), wk =   0.0320000
        k(   50) = (  -0.5000000   0.1000000   0.3000000), wk =   0.0320000
        k(   51) = (   0.5000000  -0.1000000   0.3000000), wk =   0.0320000
        k(   52) = (  -0.5000000   0.1000000   0.5000000), wk =   0.0320000
        k(   53) = (  -0.5000000   0.5000000   0.1000000), wk =   0.0320000
        k(   54) = (  -0.3000000  -0.3000000   0.3000000), wk =   0.0320000
        k(   55) = (  -0.3000000   0.3000000  -0.3000000), wk =   0.0320000
        k(   56) = (   0.3000000  -0.3000000  -0.3000000), wk =   0.0320000
        k(   57) = (  -0.3000000   0.3000000   0.5000000), wk =   0.0320000
        k(   58) = (  -0.5000000  -0.3000000   0.3000000), wk =   0.0320000
        k(   59) = (   0.5000000  -0.3000000  -0.3000000), wk =   0.0320000
        k(   60) = (  -0.3000000  -0.5000000   0.3000000), wk =   0.0320000
        k(   61) = (  -0.3000000   0.5000000  -0.3000000), wk =   0.0320000
        k(   62) = (  -0.5000000   0.3000000   0.5000000), wk =   0.0320000
        k(   63) = (  -0.5000000   0.5000000   0.3000000), wk =   0.0320000

     Dense  grid:     3119 G-vectors     FFT dimensions: (  20,  20,  20)

     Estimated max dynamical RAM per process >      10.92 MB

     Initial potential from superposition of free atoms

     starting charge   11.99084, renormalised to   12.00000
     Starting wfcs are   16 randomized atomic wfcs
     Checking if some PAW data can be deallocated... 

     total cpu time spent up to now is        1.3 secs

     Self-consistent Calculation

     iteration #  1     ecut=    66.00 Ry     beta= 0.10
     Davidson diagonalization with overlap
     ethr =  1.00E-02,  avg # of iterations =  4.5

     total cpu time spent up to now is        2.6 secs

     total energy              =    -141.88799309 Ry
     Harris-Foulkes estimate   =    -142.04435044 Ry
     estimated scf accuracy    <       0.21372849 Ry

     iteration #  2     ecut=    66.00 Ry     beta= 0.10
     Davidson diagonalization with overlap
     ethr =  1.78E-03,  avg # of iterations =  1.1

     total cpu time spent up to now is        3.3 secs

     total energy              =    -141.37989334 Ry
     Harris-Foulkes estimate   =    -141.89066105 Ry
     estimated scf accuracy    <       0.17977643 Ry

     iteration #  3     ecut=    66.00 Ry     beta= 0.10
     Davidson diagonalization with overlap
     ethr =  1.50E-03,  avg # of iterations =  2.0

     total cpu time spent up to now is        4.2 secs

     total energy              =    -141.44757740 Ry
     Harris-Foulkes estimate   =    -141.45620695 Ry
     estimated scf accuracy    <       0.01787504 Ry

     iteration #  4     ecut=    66.00 Ry     beta= 0.10
     Davidson diagonalization with overlap
     ethr =  1.49E-04,  avg # of iterations =  1.3

     total cpu time spent up to now is        4.9 secs

     total energy              =    -141.45187546 Ry
     Harris-Foulkes estimate   =    -141.44930194 Ry
     estimated scf accuracy    <       0.01399732 Ry

     iteration #  5     ecut=    66.00 Ry     beta= 0.10
     Davidson diagonalization with overlap
     ethr =  1.17E-04,  avg # of iterations =  1.9

     total cpu time spent up to now is        5.7 secs

     total energy              =    -141.45511782 Ry
     Harris-Foulkes estimate   =    -141.45383484 Ry
     estimated scf accuracy    <       0.00049876 Ry

     iteration #  6     ecut=    66.00 Ry     beta= 0.10
     Davidson diagonalization with overlap
     ethr =  4.16E-06,  avg # of iterations =  3.1

     total cpu time spent up to now is        6.6 secs

     total energy              =    -141.45395951 Ry
     Harris-Foulkes estimate   =    -141.45532280 Ry
     estimated scf accuracy    <       0.00003329 Ry

     iteration #  7     ecut=    66.00 Ry     beta= 0.10
     Davidson diagonalization with overlap
     ethr =  2.77E-07,  avg # of iterations =  3.2

     total cpu time spent up to now is        7.6 secs

     total energy              =    -141.45376313 Ry
     Harris-Foulkes estimate   =    -141.45401248 Ry
     estimated scf accuracy    <       0.00008680 Ry

     iteration #  8     ecut=    66.00 Ry     beta= 0.10
     Davidson diagonalization with overlap
     ethr =  2.77E-07,  avg # of iterations =  3.0

     total cpu time spent up to now is        8.8 secs

     total energy              =    -141.45379075 Ry
     Harris-Foulkes estimate   =    -141.45378943 Ry
     estimated scf accuracy    <       0.00000307 Ry

     iteration #  9     ecut=    66.00 Ry     beta= 0.10
     Davidson diagonalization with overlap
     ethr =  2.56E-08,  avg # of iterations =  1.1

     total cpu time spent up to now is        9.5 secs

     total energy              =    -141.45378900 Ry
     Harris-Foulkes estimate   =    -141.45379086 Ry
     estimated scf accuracy    <       0.00000177 Ry

     iteration # 10     ecut=    66.00 Ry     beta= 0.10
     Davidson diagonalization with overlap
     ethr =  1.47E-08,  avg # of iterations =  2.0

     total cpu time spent up to now is       10.4 secs

     End of self-consistent calculation

          k = 0.1000 0.1000 0.1000 (   603 PWs)   bands (ev):

    30.4557  41.2932  41.3094  41.3249  52.3228  52.3397  52.3563  54.7225
    54.7317  54.7411

          k = 0.1000 0.1000 0.3000 (   595 PWs)   bands (ev):

    32.8573  39.8862  43.2165  43.2368  52.2009  52.2191  54.4483  54.4598
    54.5921  58.7428

          k = 0.1000 0.1000-0.5000 (   594 PWs)   bands (ev):

    36.5599  36.6006  44.5929  44.5929  52.1560  52.1562  54.2315  54.2316
    59.1155  59.1799

          k = 0.1000 0.3000 0.3000 (   590 PWs)   bands (ev):

    35.0143  41.7383  41.7763  44.5964  50.9108  53.2354  53.2849  55.4927
    58.4369  58.4397

          k = 0.1000 0.3000-0.5000 (   598 PWs)   bands (ev):

    38.4551  38.4972  44.0999  44.1228  51.6312  51.6370  56.3969  56.4290
    57.0042  57.0069

          k = 0.1000-0.5000-0.5000 (   592 PWs)   bands (ev):

    41.4354  41.4437  41.4835  41.4916  53.6136  53.6257  53.6551  53.6674
    61.3466  61.3522

          k = 0.3000 0.3000 0.3000 (   591 PWs)   bands (ev):

    36.8845  43.4329  43.4683  43.5031  49.7681  49.8072  49.8463  56.2834
    61.5718  61.5766

          k = 0.3000 0.3000-0.5000 (   600 PWs)   bands (ev):

    40.0576  40.1012  45.3610  45.3618  47.4817  47.4828  52.3351  52.3360
    63.0402  63.0404

          k = 0.3000-0.5000-0.5000 (   604 PWs)   bands (ev):

    42.8371  42.8469  42.8894  42.8992  48.9021  48.9137  48.9463  48.9580
    69.0270  69.0367

          k =-0.5000-0.5000-0.5000 (   624 PWs)   bands (ev):

    44.9270  44.9283  44.9304  44.9305  45.8207  45.8210  45.8229  45.8245
    75.2000  75.2002

          k =-0.1000-0.1000 0.1000 (   603 PWs)   bands (ev):

    30.4557  41.2965  41.3093  41.3216  52.3264  52.3395  52.3528  54.7245
    54.7317  54.7391

          k =-0.1000 0.1000-0.1000 (   603 PWs)   bands (ev):

    30.4557  41.2998  41.3092  41.3184  52.3297  52.3396  52.3493  54.7263
    54.7317  54.7372

          k = 0.1000-0.1000-0.1000 (   603 PWs)   bands (ev):

    30.4557  41.2981  41.3093  41.3201  52.3279  52.3396  52.3512  54.7253
    54.7317  54.7383

          k =-0.1000-0.1000 0.3000 (   595 PWs)   bands (ev):

    32.8573  39.8863  43.2164  43.2368  52.2010  52.2191  54.4483  54.4599
    54.5918  58.7428

          k =-0.1000 0.1000-0.3000 (   595 PWs)   bands (ev):

    32.8573  39.8863  43.2219  43.2313  52.2059  52.2142  54.4514  54.4567
    54.5919  58.7427

          k = 0.1000-0.1000-0.3000 (   595 PWs)   bands (ev):

    32.8573  39.8862  43.2220  43.2313  52.2058  52.2141  54.4514  54.4567
    54.5921  58.7427

          k = 0.3000-0.1000 0.1000 (   595 PWs)   bands (ev):

    32.8573  39.8862  43.2219  43.2314  52.2057  52.2141  54.4515  54.4569
    54.5920  58.7428

          k =-0.3000-0.1000-0.1000 (   595 PWs)   bands (ev):

    32.8573  39.8861  43.2180  43.2353  52.2023  52.2178  54.4486  54.4585
    54.5931  58.7427

          k = 0.3000 0.1000-0.1000 (   595 PWs)   bands (ev):

    32.8573  39.8862  43.2219  43.2314  52.2056  52.2141  54.4516  54.4569
    54.5920  58.7428

          k =-0.3000 0.1000 0.1000 (   595 PWs)   bands (ev):

    32.8573  39.8862  43.2179  43.2353  52.2024  52.2178  54.4488  54.4587
    54.5925  58.7428

          k =-0.1000 0.3000 0.1000 (   595 PWs)   bands (ev):

    32.8573  39.8861  43.2255  43.2281  52.2089  52.2112  54.4532  54.4547
    54.5920  58.7428

          k =-0.1000-0.3000-0.1000 (   595 PWs)   bands (ev):

    32.8573  39.8860  43.2217  43.2319  52.2054  52.2145  54.4512  54.4570
    54.5920  58.7428

          k = 0.1000 0.3000-0.1000 (   595 PWs)   bands (ev):

    32.8573  39.8861  43.2255  43.2281  52.2089  52.2112  54.4528  54.4545
    54.5926  58.7427

          k = 0.1000-0.3000 0.1000 (   595 PWs)   bands (ev):

    32.8573  39.8861  43.2217  43.2319  52.2055  52.2146  54.4510  54.4569
    54.5920  58.7428

          k =-0.1000 0.1000 0.5000 (   594 PWs)   bands (ev):

    36.5599  36.6006  44.5929  44.5930  52.1559  52.1561  54.2316  54.2316
    59.1155  59.1799

          k =-0.5000-0.1000 0.1000 (   594 PWs)   bands (ev):

    36.5778  36.5826  44.5928  44.5931  52.1557  52.1559  54.2317  54.2318
    59.1441  59.1514

          k = 0.5000-0.1000-0.1000 (   594 PWs)   bands (ev):

    36.5778  36.5826  44.5928  44.5931  52.1562  52.1562  54.2312  54.2315
    59.1443  59.1515

          k =-0.1000-0.5000 0.1000 (   594 PWs)   bands (ev):

    36.5795  36.5808  44.5931  44.5932  52.1560  52.1561  54.2314  54.2316
    59.1466  59.1488

          k =-0.1000 0.5000-0.1000 (   594 PWs)   bands (ev):

    36.5795  36.5808  44.5931  44.5932  52.1558  52.1561  54.2315  54.2317
    59.1465  59.1488

          k =-0.1000-0.3000 0.3000 (   590 PWs)   bands (ev):

    35.0143  41.7470  41.7677  44.5962  50.9111  53.2466  53.2736  55.4927
    58.4374  58.4389

          k =-0.1000 0.3000-0.3000 (   590 PWs)   bands (ev):

    35.0143  41.7470  41.7677  44.5962  50.9111  53.2466  53.2735  55.4928
    58.4374  58.4389

          k = 0.1000-0.3000-0.3000 (   590 PWs)   bands (ev):

    35.0143  41.7383  41.7763  44.5964  50.9110  53.2354  53.2849  55.4927
    58.4367  58.4395

          k = 0.3000 0.1000-0.3000 (   590 PWs)   bands (ev):

    35.0143  41.7544  41.7602  44.5963  50.9107  53.2565  53.2640  55.4928
    58.4380  58.4385

          k =-0.3000-0.1000-0.3000 (   590 PWs)   bands (ev):

    35.0143  41.7462  41.7684  44.5962  50.9110  53.2458  53.2749  55.4928
    58.4371  58.4388

          k = 0.3000-0.1000 0.3000 (   590 PWs)   bands (ev):

    35.0143  41.7462  41.7685  44.5961  50.9109  53.2456  53.2747  55.4929
    58.4373  58.4389

          k =-0.3000 0.1000 0.3000 (   590 PWs)   bands (ev):

    35.0143  41.7544  41.7602  44.5962  50.9109  53.2566  53.2641  55.4927
    58.4376  58.4383

          k = 0.3000-0.3000 0.1000 (   590 PWs)   bands (ev):

    35.0143  41.7471  41.7675  44.5963  50.9107  53.2468  53.2734  55.4928
    58.4376  58.4390

          k =-0.3000-0.3000-0.1000 (   590 PWs)   bands (ev):

    35.0143  41.7350  41.7796  44.5963  50.9110  53.2312  53.2892  55.4926
    58.4366  58.4398

          k = 0.3000 0.3000-0.1000 (   590 PWs)   bands (ev):

    35.0143  41.7351  41.7796  44.5962  50.9109  53.2311  53.2891  55.4929
    58.4366  58.4398

          k =-0.3000 0.3000 0.1000 (   590 PWs)   bands (ev):

    35.0143  41.7471  41.7675  44.5963  50.9110  53.2470  53.2735  55.4923
    58.4375  58.4389

          k =-0.1000 0.3000 0.5000 (   598 PWs)   bands (ev):

    38.4551  38.4972  44.0999  44.1229  51.6312  51.6369  56.3966  56.4288
    57.0044  57.0072

          k = 0.3000 0.1000 0.5000 (   598 PWs)   bands (ev):

    38.4551  38.4972  44.0998  44.1228  51.6313  51.6371  56.3971  56.4293
    57.0040  57.0066

          k = 0.3000-0.1000-0.5000 (   598 PWs)   bands (ev):

    38.4551  38.4972  44.0999  44.1228  51.6313  51.6370  56.3970  56.4292
    57.0041  57.0068

          k =-0.5000-0.3000 0.1000 (   598 PWs)   bands (ev):

    38.4736  38.4786  44.1100  44.1128  51.6334  51.6343  56.4117  56.4152
    57.0051  57.0054

          k = 0.5000-0.3000-0.1000 (   598 PWs)   bands (ev):

    38.4736  38.4786  44.1100  44.1128  51.6338  51.6346  56.4090  56.4130
    57.0066  57.0084

          k =-0.1000-0.5000 0.3000 (   598 PWs)   bands (ev):

    38.4754  38.4768  44.1112  44.1119  51.6340  51.6342  56.4116  56.4133
    57.0053  57.0067

          k =-0.1000 0.5000-0.3000 (   598 PWs)   bands (ev):

    38.4754  38.4768  44.1112  44.1119  51.6339  51.6342  56.4119  56.4135
    57.0051  57.0065

          k = 0.3000-0.5000 0.1000 (   598 PWs)   bands (ev):

    38.4754  38.4768  44.1111  44.1119  51.6338  51.6342  56.4115  56.4136
    57.0051  57.0068

          k = 0.3000 0.5000-0.1000 (   598 PWs)   bands (ev):

    38.4754  38.4768  44.1111  44.1119  51.6340  51.6342  56.4099  56.4134
    57.0051  57.0085

          k =-0.5000 0.1000 0.3000 (   598 PWs)   bands (ev):

    38.4736  38.4786  44.1100  44.1128  51.6339  51.6347  56.4107  56.4143
    57.0055  57.0064

          k = 0.5000-0.1000 0.3000 (   598 PWs)   bands (ev):

    38.4736  38.4786  44.1100  44.1128  51.6336  51.6344  56.4116  56.4151
    57.0051  57.0054

          k =-0.5000 0.1000 0.5000 (   592 PWs)   bands (ev):

    41.4384  41.4473  41.4796  41.4889  53.6245  53.6363  53.6450  53.6566
    61.3504  61.3561

          k =-0.5000 0.5000 0.1000 (   592 PWs)   bands (ev):

    41.4424  41.4537  41.4733  41.4848  53.6090  53.6261  53.6548  53.6717
    61.3461  61.3540

          k =-0.3000-0.3000 0.3000 (   591 PWs)   bands (ev):

    36.8845  43.4403  43.4682  43.4958  49.7763  49.8071  49.8380  56.2836
    61.5729  61.5766

          k =-0.3000 0.3000-0.3000 (   591 PWs)   bands (ev):

    36.8845  43.4476  43.4681  43.4886  49.7842  49.8071  49.8299  56.2836
    61.5738  61.5767

          k = 0.3000-0.3000-0.3000 (   591 PWs)   bands (ev):

    36.8845  43.4437  43.4681  43.4924  49.7801  49.8072  49.8344  56.2832
    61.5745  61.5797

          k =-0.3000 0.3000 0.5000 (   600 PWs)   bands (ev):

    40.0576  40.1012  45.3616  45.3619  47.4817  47.4821  52.3351  52.3360
    63.0403  63.0404

          k =-0.5000-0.3000 0.3000 (   600 PWs)   bands (ev):

    40.0767  40.0819  45.3618  45.3620  47.4816  47.4819  52.3355  52.3358
    63.0403  63.0404

          k = 0.5000-0.3000-0.3000 (   600 PWs)   bands (ev):

    40.0767  40.0819  45.3615  45.3618  47.4821  47.4822  52.3354  52.3357
    63.0403  63.0404

          k =-0.3000-0.5000 0.3000 (   600 PWs)   bands (ev):

    40.0786  40.0800  45.3620  45.3620  47.4817  47.4818  52.3354  52.3357
    63.0403  63.0405

          k =-0.3000 0.5000-0.3000 (   600 PWs)   bands (ev):

    40.0786  40.0800  45.3618  45.3620  47.4816  47.4820  52.3354  52.3357
    63.0402  63.0405

          k =-0.5000 0.3000 0.5000 (   604 PWs)   bands (ev):

    42.8411  42.8515  42.8845  42.8952  48.9107  48.9220  48.9381  48.9496
    69.0394  69.0511

          k =-0.5000 0.5000 0.3000 (   604 PWs)   bands (ev):

    42.8428  42.8565  42.8798  42.8934  48.9000  48.9163  48.9438  48.9600
    69.0362  69.0526

     the Fermi energy is    52.5668 ev

!    total energy              =    -141.45378935 Ry
     Harris-Foulkes estimate   =    -141.45378941 Ry
     estimated scf accuracy    <       0.00000024 Ry

     total all-electron energy =     -1926.024911 Ry

     The total energy is the sum of the following terms:

     one-electron contribution =      58.67902098 Ry
     hartree contribution      =       0.24963728 Ry
     xc contribution           =     -17.30859782 Ry
     ewald contribution        =     -40.85514768 Ry
     one-center paw contrib.   =    -142.05170670 Ry
     smearing contrib. (-TS)   =      -0.16699542 Ry

     convergence has been achieved in  10 iterations

     Forces acting on atoms (cartesian axes, Ry/au):

     atom    1 type  1   force =     0.00189605   -0.00027206    0.01543335
     atom    2 type  1   force =    -0.00376951    0.00521553    0.01537084
     atom    3 type  1   force =     0.00019323   -0.00074940   -0.01672204
     atom    4 type  1   force =     0.00168023   -0.00419407   -0.01408215

     Total force =     0.031914     Total SCF correction =     0.000012


     Computing stress (Cartesian axis) and pressure

          total   stress  (Ry/bohr**3)                   (kbar)     P=60200.82
   0.40923796  -0.00000107   0.00000180      60200.97     -0.16      0.26
  -0.00000107   0.40923475  -0.00000293         -0.16  60200.50     -0.43
   0.00000180  -0.00000293   0.40923815          0.26     -0.43  60201.00


     Writing output data file fe_scf_fcc_2.save/

     init_run     :      0.84s CPU      0.85s WALL (       1 calls)
     electrons    :      8.94s CPU      9.08s WALL (       1 calls)
     forces       :      0.08s CPU      0.08s WALL (       1 calls)
     stress       :      0.28s CPU      0.28s WALL (       1 calls)

     Called by init_run:
     wfcinit      :      0.33s CPU      0.33s WALL (       1 calls)
     potinit      :      0.25s CPU      0.26s WALL (       1 calls)
     hinit0       :      0.25s CPU      0.25s WALL (       1 calls)

     Called by electrons:
     c_bands      :      5.52s CPU      5.64s WALL (      10 calls)
     sum_band     :      0.84s CPU      0.86s WALL (      10 calls)
     v_of_rho     :      0.06s CPU      0.06s WALL (      11 calls)
     newd         :      0.05s CPU      0.05s WALL (      11 calls)
     PAW_pot      :      2.70s CPU      2.72s WALL (      11 calls)
     mix_rho      :      0.01s CPU      0.01s WALL (      10 calls)

     Called by c_bands:
     init_us_2    :      0.31s CPU      0.29s WALL (    1449 calls)
     cegterg      :      5.12s CPU      5.20s WALL (     630 calls)

     Called by sum_band:
     sum_band:bec :      0.00s CPU      0.01s WALL (     630 calls)
     addusdens    :      0.02s CPU      0.03s WALL (      10 calls)

     Called by *egterg:
     h_psi        :      3.80s CPU      3.91s WALL (    2166 calls)
     s_psi        :      0.30s CPU      0.27s WALL (    2166 calls)
     g_psi        :      0.02s CPU      0.05s WALL (    1473 calls)
     cdiaghg      :      0.45s CPU      0.43s WALL (    2103 calls)

     Called by h_psi:
     h_psi:pot    :      3.77s CPU      3.87s WALL (    2166 calls)
     h_psi:calbec :      0.28s CPU      0.30s WALL (    2166 calls)
     vloc_psi     :      3.25s CPU      3.28s WALL (    2166 calls)
     add_vuspsi   :      0.24s CPU      0.29s WALL (    2166 calls)

     General routines
     calbec       :      0.40s CPU      0.42s WALL (    3111 calls)
     fft          :      0.01s CPU      0.01s WALL (     147 calls)
     ffts         :      0.00s CPU      0.00s WALL (      10 calls)
     fftw         :      3.24s CPU      3.32s WALL (   42782 calls)

     Parallel routines

     PWSCF        :    10.59s CPU        10.77s WALL


   This run was terminated on:   0:46:59  22Oct2019            

=------------------------------------------------------------------------------=
   JOB DONE.
=------------------------------------------------------------------------------=
