
     Program PWSCF v.6.3 starts on 22Oct2019 at 19: 2:11 

     This program is part of the open-source Quantum ESPRESSO suite
     for quantum simulation of materials; please cite
         "P. Giannozzi et al., J. Phys.:Condens. Matter 21 395502 (2009);
         "P. Giannozzi et al., J. Phys.:Condens. Matter 29 465901 (2017);
          URL http://www.quantum-espresso.org", 
     in publications or presentations arising from this work. More details at
     http://www.quantum-espresso.org/quote

     Parallel version (MPI & OpenMP), running on      20 processor cores
     Number of MPI processes:                20
     Threads/MPI process:                     1

     MPI processes distributed on     1 nodes
     R & G space division:  proc/nbgrp/npool/nimage =      20
     Reading input from /rds/homes/b/bxp912/jobs/20191022_test/wd/runpwscf/file_10042.in
Warning: card &IONS ignored
Warning: card ION_DYNAMICS = 'BFGS', ignored
Warning: card / ignored
Warning: card &CELL ignored
Warning: card CELL_DYNAMICS = 'BFGS', ignored
Warning: card CELL_FACTOR = 2.0, ignored
Warning: card PRESS = 0.0, ignored
Warning: card / ignored

     Current dimensions of program PWSCF are:
     Max number of different atomic species (ntypx) = 10
     Max number of k-points (npk) =  40000
     Max angular momentum in pseudopotentials (lmaxx) =  3
     Message from routine read_upf::
     Pseudo file /rds/homes/b/bxp912/pp/Al.pbe-nl-kjpaw_psl.1.0.0.UPF has been successfully fixed on the fly.
To avoid this message in the future you can permanently fix 
 your pseudo files following instructions given in: 
https://gitlab.com/QEF/q-e/blob/master/upftools/how_to_fix_upf.md
               file Al.pbe-nl-kjpaw_psl.1.0.0.UPF: wavefunction(s)  3S 3P renormalized

     Subspace diagonalization in iterative solution of the eigenvalue problem:
     a serial algorithm will be used

 
     Parallelization info
     --------------------
     sticks:   dense  smooth     PW     G-vecs:    dense   smooth      PW
     Min          13      13      6                  155      155      52
     Max          14      14      8                  157      157      53
     Sum         261     261    129                 3119     3119    1045
 


     bravais-lattice index     =            0
     lattice parameter (alat)  =       4.0400  a.u.
     unit-cell volume          =      65.9393 (a.u.)^3
     number of atoms/cell      =            4
     number of atomic types    =            1
     number of electrons       =        12.00
     number of Kohn-Sham states=           10
     kinetic-energy cutoff     =      78.0000  Ry
     charge density cutoff     =     200.0000  Ry
     convergence threshold     =      1.0E-06
     mixing beta               =       0.1000
     number of iterations used =           10  TF        mixing
     Exchange-correlation      = SLA PW PBX PBC ( 1  4  3  4 0 0)

     celldm(1)=   4.040000  celldm(2)=   0.000000  celldm(3)=   0.000000
     celldm(4)=   0.000000  celldm(5)=   0.000000  celldm(6)=   0.000000

     crystal axes: (cart. coord. in units of alat)
               a(1) = (   1.000000   0.000000   0.000000 )  
               a(2) = (   0.000000   1.000000   0.000000 )  
               a(3) = (   0.000000   0.000000   1.000000 )  

     reciprocal axes: (cart. coord. in units 2 pi/alat)
               b(1) = (  1.000000  0.000000  0.000000 )  
               b(2) = (  0.000000  1.000000  0.000000 )  
               b(3) = (  0.000000  0.000000  1.000000 )  


     PseudoPot. # 1 for Al read from file:
     /rds/homes/b/bxp912/pp/Al.pbe-nl-kjpaw_psl.1.0.0.UPF
     MD5 check sum: 339dbea23cf3ab9a065ad45c0f9085d7
     Pseudo is Projector augmented-wave + core cor, Zval =  3.0
     Generated using "atomic" code by A. Dal Corso v.5.1
     Shape of augmentation charge: PSQ
     Using radial grid of 1135 points,  4 beta functions with: 
                l(1) =   0
                l(2) =   0
                l(3) =   1
                l(4) =   1
     Q(r) pseudized with 0 coefficients 


     atomic species   valence    mass     pseudopotential
        Al             3.00    26.98200     Al( 1.00)

     No symmetry found



   Cartesian axes

     site n.     atom                  positions (alat units)
         1           Al  tau(   1) = (  -0.0001235   0.0000359   0.0002572  )
         2           Al  tau(   2) = (   0.5003009   0.4992819   0.0002658  )
         3           Al  tau(   3) = (   0.4996490   0.0001153   0.5011170  )
         4           Al  tau(   4) = (  -0.0000756   0.5008267   0.5006943  )

     number of k points=    32  Marzari-Vanderbilt smearing, width (Ry)=  0.0200
                       cart. coord. in units 2pi/alat
        k(    1) = (   0.1250000   0.1250000   0.1250000), wk =   0.0625000
        k(    2) = (   0.1250000   0.1250000   0.3750000), wk =   0.0625000
        k(    3) = (   0.1250000   0.3750000   0.3750000), wk =   0.0625000
        k(    4) = (   0.3750000   0.3750000   0.3750000), wk =   0.0625000
        k(    5) = (  -0.1250000  -0.1250000   0.1250000), wk =   0.0625000
        k(    6) = (  -0.1250000   0.1250000  -0.1250000), wk =   0.0625000
        k(    7) = (   0.1250000  -0.1250000  -0.1250000), wk =   0.0625000
        k(    8) = (  -0.1250000  -0.1250000   0.3750000), wk =   0.0625000
        k(    9) = (  -0.1250000   0.1250000  -0.3750000), wk =   0.0625000
        k(   10) = (   0.1250000  -0.1250000  -0.3750000), wk =   0.0625000
        k(   11) = (   0.3750000  -0.1250000   0.1250000), wk =   0.0625000
        k(   12) = (  -0.3750000  -0.1250000  -0.1250000), wk =   0.0625000
        k(   13) = (   0.3750000   0.1250000  -0.1250000), wk =   0.0625000
        k(   14) = (  -0.3750000   0.1250000   0.1250000), wk =   0.0625000
        k(   15) = (  -0.1250000   0.3750000   0.1250000), wk =   0.0625000
        k(   16) = (  -0.1250000  -0.3750000  -0.1250000), wk =   0.0625000
        k(   17) = (   0.1250000   0.3750000  -0.1250000), wk =   0.0625000
        k(   18) = (   0.1250000  -0.3750000   0.1250000), wk =   0.0625000
        k(   19) = (  -0.1250000  -0.3750000   0.3750000), wk =   0.0625000
        k(   20) = (  -0.1250000   0.3750000  -0.3750000), wk =   0.0625000
        k(   21) = (   0.1250000  -0.3750000  -0.3750000), wk =   0.0625000
        k(   22) = (   0.3750000   0.1250000  -0.3750000), wk =   0.0625000
        k(   23) = (  -0.3750000  -0.1250000  -0.3750000), wk =   0.0625000
        k(   24) = (   0.3750000  -0.1250000   0.3750000), wk =   0.0625000
        k(   25) = (  -0.3750000   0.1250000   0.3750000), wk =   0.0625000
        k(   26) = (   0.3750000  -0.3750000   0.1250000), wk =   0.0625000
        k(   27) = (  -0.3750000  -0.3750000  -0.1250000), wk =   0.0625000
        k(   28) = (   0.3750000   0.3750000  -0.1250000), wk =   0.0625000
        k(   29) = (  -0.3750000   0.3750000   0.1250000), wk =   0.0625000
        k(   30) = (  -0.3750000  -0.3750000   0.3750000), wk =   0.0625000
        k(   31) = (  -0.3750000   0.3750000  -0.3750000), wk =   0.0625000
        k(   32) = (   0.3750000  -0.3750000  -0.3750000), wk =   0.0625000

     Dense  grid:     3119 G-vectors     FFT dimensions: (  20,  20,  20)

     Estimated max dynamical RAM per process >       0.67 MB

     Estimated total dynamical RAM >      13.38 MB

     Initial potential from superposition of free atoms

     starting charge   11.99084, renormalised to   12.00000
     Starting wfcs are   16 randomized atomic wfcs
     Checking if some PAW data can be deallocated... 

     total cpu time spent up to now is        0.7 secs

     Self-consistent Calculation

     iteration #  1     ecut=    78.00 Ry     beta= 0.10
     Davidson diagonalization with overlap
     ethr =  1.00E-02,  avg # of iterations =  4.9

     total cpu time spent up to now is        1.0 secs

     total energy              =    -141.65273251 Ry
     Harris-Foulkes estimate   =    -141.80700852 Ry
     estimated scf accuracy    <       0.18109360 Ry

     iteration #  2     ecut=    78.00 Ry     beta= 0.10
     Davidson diagonalization with overlap
     ethr =  1.51E-03,  avg # of iterations =  1.0

     total cpu time spent up to now is        1.1 secs

     total energy              =    -141.16244826 Ry
     Harris-Foulkes estimate   =    -141.65530514 Ry
     estimated scf accuracy    <       0.15198635 Ry

     iteration #  3     ecut=    78.00 Ry     beta= 0.10
     Davidson diagonalization with overlap
     ethr =  1.27E-03,  avg # of iterations =  2.0

     total cpu time spent up to now is        1.2 secs

     total energy              =    -141.24314654 Ry
     Harris-Foulkes estimate   =    -141.25484683 Ry
     estimated scf accuracy    <       0.01550954 Ry

     iteration #  4     ecut=    78.00 Ry     beta= 0.10
     Davidson diagonalization with overlap
     ethr =  1.29E-04,  avg # of iterations =  1.0

     total cpu time spent up to now is        1.3 secs

     total energy              =    -141.24152130 Ry
     Harris-Foulkes estimate   =    -141.24357747 Ry
     estimated scf accuracy    <       0.01235804 Ry

     iteration #  5     ecut=    78.00 Ry     beta= 0.10
     Davidson diagonalization with overlap
     ethr =  1.03E-04,  avg # of iterations =  1.0

     total cpu time spent up to now is        1.4 secs

     total energy              =    -141.24338260 Ry
     Harris-Foulkes estimate   =    -141.24258659 Ry
     estimated scf accuracy    <       0.00075931 Ry

     iteration #  6     ecut=    78.00 Ry     beta= 0.10
     Davidson diagonalization with overlap
     ethr =  6.33E-06,  avg # of iterations =  2.8

     total cpu time spent up to now is        1.5 secs

     total energy              =    -141.24364909 Ry
     Harris-Foulkes estimate   =    -141.24363773 Ry
     estimated scf accuracy    <       0.00011195 Ry

     iteration #  7     ecut=    78.00 Ry     beta= 0.10
     Davidson diagonalization with overlap
     ethr =  9.33E-07,  avg # of iterations =  1.1

     total cpu time spent up to now is        1.6 secs

     total energy              =    -141.24272125 Ry
     Harris-Foulkes estimate   =    -141.24365067 Ry
     estimated scf accuracy    <       0.00009072 Ry

     iteration #  8     ecut=    78.00 Ry     beta= 0.10
     Davidson diagonalization with overlap
     ethr =  7.56E-07,  avg # of iterations =  2.7

     total cpu time spent up to now is        1.8 secs

     total energy              =    -141.24289341 Ry
     Harris-Foulkes estimate   =    -141.24280171 Ry
     estimated scf accuracy    <       0.00001756 Ry

     iteration #  9     ecut=    78.00 Ry     beta= 0.10
     Davidson diagonalization with overlap
     ethr =  1.46E-07,  avg # of iterations =  2.0

     total cpu time spent up to now is        1.9 secs

     total energy              =    -141.24277629 Ry
     Harris-Foulkes estimate   =    -141.24289946 Ry
     estimated scf accuracy    <       0.00000782 Ry

     iteration # 10     ecut=    78.00 Ry     beta= 0.10
     Davidson diagonalization with overlap
     ethr =  6.52E-08,  avg # of iterations =  3.0

     total cpu time spent up to now is        2.0 secs

     End of self-consistent calculation

          k = 0.1250 0.1250 0.1250 (   772 PWs)   bands (ev):

    30.9116  41.4357  41.4548  41.4735  52.4289  52.4491  52.4692  54.9298
    54.9396  54.9497

          k = 0.1250 0.1250 0.3750 (   768 PWs)   bands (ev):

    34.4046  39.0114  43.9408  43.9596  51.8106  51.8278  54.8764  54.8851
    55.6921  61.5160

          k = 0.1250 0.3750 0.3750 (   765 PWs)   bands (ev):

    37.4200  41.6550  41.6920  44.5472  50.4930  52.9057  52.9548  57.0458
    57.5674  60.7349

          k = 0.3750 0.3750 0.3750 (   759 PWs)   bands (ev):

    39.8858  43.9746  44.0126  44.0504  47.7738  47.8152  47.8568  51.6494
    66.9734  66.9765

          k =-0.1250-0.1250 0.1250 (   772 PWs)   bands (ev):

    30.9116  41.4397  41.4547  41.4695  52.4331  52.4490  52.4650  54.9318
    54.9397  54.9475

          k =-0.1250 0.1250-0.1250 (   772 PWs)   bands (ev):

    30.9116  41.4435  41.4547  41.4657  52.4372  52.4490  52.4608  54.9339
    54.9396  54.9455

          k = 0.1250-0.1250-0.1250 (   772 PWs)   bands (ev):

    30.9116  41.4415  41.4547  41.4677  52.4350  52.4492  52.4630  54.9328
    54.9397  54.9466

          k =-0.1250-0.1250 0.3750 (   768 PWs)   bands (ev):

    34.4046  39.0114  43.9408  43.9596  51.8106  51.8279  54.8765  54.8851
    55.6918  61.5160

          k =-0.1250 0.1250-0.3750 (   768 PWs)   bands (ev):

    34.4046  39.0114  43.9459  43.9545  51.8152  51.8231  54.8788  54.8828
    55.6919  61.5162

          k = 0.1250-0.1250-0.3750 (   768 PWs)   bands (ev):

    34.4046  39.0114  43.9459  43.9546  51.8152  51.8231  54.8788  54.8828
    55.6921  61.5160

          k = 0.3750-0.1250 0.1250 (   768 PWs)   bands (ev):

    34.4046  39.0113  43.9459  43.9546  51.8150  51.8230  54.8790  54.8830
    55.6921  61.5159

          k =-0.3750-0.1250-0.1250 (   768 PWs)   bands (ev):

    34.4046  39.0113  43.9422  43.9583  51.8120  51.8266  54.8767  54.8841
    55.6927  61.5160

          k = 0.3750 0.1250-0.1250 (   768 PWs)   bands (ev):

    34.4046  39.0113  43.9459  43.9546  51.8150  51.8230  54.8790  54.8830
    55.6921  61.5159

          k =-0.3750 0.1250 0.1250 (   768 PWs)   bands (ev):

    34.4046  39.0113  43.9422  43.9582  51.8120  51.8267  54.8768  54.8842
    55.6923  61.5160

          k =-0.1250 0.3750 0.1250 (   768 PWs)   bands (ev):

    34.4046  39.0112  43.9492  43.9516  51.8181  51.8203  54.8801  54.8812
    55.6920  61.5159

          k =-0.1250-0.3750-0.1250 (   768 PWs)   bands (ev):

    34.4046  39.0112  43.9457  43.9551  51.8148  51.8234  54.8786  54.8830
    55.6921  61.5161

          k = 0.1250 0.3750-0.1250 (   768 PWs)   bands (ev):

    34.4046  39.0112  43.9492  43.9516  51.8181  51.8203  54.8800  54.8812
    55.6924  61.5160

          k = 0.1250-0.3750 0.1250 (   768 PWs)   bands (ev):

    34.4046  39.0112  43.9457  43.9551  51.8149  51.8235  54.8786  54.8829
    55.6920  61.5160

          k =-0.1250-0.3750 0.3750 (   765 PWs)   bands (ev):

    37.4199  41.6635  41.6836  44.5471  50.4931  52.9168  52.9436  57.0452
    57.5683  60.7331

          k =-0.1250 0.3750-0.3750 (   765 PWs)   bands (ev):

    37.4199  41.6635  41.6836  44.5471  50.4931  52.9167  52.9435  57.0448
    57.5688  60.7342

          k = 0.1250-0.3750-0.3750 (   765 PWs)   bands (ev):

    37.4200  41.6550  41.6920  44.5472  50.4930  52.9057  52.9548  57.0454
    57.5677  60.7327

          k = 0.3750 0.1250-0.3750 (   765 PWs)   bands (ev):

    37.4200  41.6707  41.6763  44.5471  50.4930  52.9266  52.9340  57.0459
    57.5676  60.7355

          k =-0.3750-0.1250-0.3750 (   765 PWs)   bands (ev):

    37.4200  41.6626  41.6843  44.5470  50.4932  52.9159  52.9448  57.0461
    57.5672  60.7336

          k = 0.3750-0.1250 0.3750 (   765 PWs)   bands (ev):

    37.4199  41.6627  41.6844  44.5470  50.4930  52.9158  52.9447  57.0462
    57.5674  60.7335

          k =-0.3750 0.1250 0.3750 (   765 PWs)   bands (ev):

    37.4199  41.6707  41.6763  44.5471  50.4931  52.9267  52.9341  57.0455
    57.5676  60.7356

          k = 0.3750-0.3750 0.1250 (   765 PWs)   bands (ev):

    37.4200  41.6636  41.6834  44.5472  50.4928  52.9169  52.9434  57.0461
    57.5674  60.7353

          k =-0.3750-0.3750-0.1250 (   765 PWs)   bands (ev):

    37.4200  41.6518  41.6952  44.5470  50.4932  52.9013  52.9591  57.0440
    57.5694  60.7308

          k = 0.3750 0.3750-0.1250 (   765 PWs)   bands (ev):

    37.4200  41.6518  41.6952  44.5471  50.4930  52.9013  52.9590  57.0462
    57.5673  60.7336

          k =-0.3750 0.3750 0.1250 (   765 PWs)   bands (ev):

    37.4200  41.6635  41.6834  44.5471  50.4931  52.9171  52.9435  57.0415
    57.5719  60.7354

          k =-0.3750-0.3750 0.3750 (   759 PWs)   bands (ev):

    39.8857  43.9825  44.0126  44.0424  47.7825  47.8152  47.8481  51.6495
    66.9731  66.9769

          k =-0.3750 0.3750-0.3750 (   759 PWs)   bands (ev):

    39.8857  43.9903  44.0125  44.0346  47.7910  47.8152  47.8395  51.6496
    66.9736  66.9757

          k = 0.3750-0.3750-0.3750 (   759 PWs)   bands (ev):

    39.8857  43.9862  44.0125  44.0387  47.7865  47.8153  47.8441  51.6494
    66.9731  66.9768

     the Fermi energy is    52.6606 ev

!    total energy              =    -141.24278495 Ry
     Harris-Foulkes estimate   =    -141.24278640 Ry
     estimated scf accuracy    <       0.00000085 Ry

     total all-electron energy =     -1925.813913 Ry

     The total energy is the sum of the following terms:

     one-electron contribution =      58.67257043 Ry
     hartree contribution      =       0.21192304 Ry
     xc contribution           =     -17.28496814 Ry
     ewald contribution        =     -40.85514768 Ry
     one-center paw contrib.   =    -141.98652497 Ry
     smearing contrib. (-TS)   =      -0.00063763 Ry

     convergence has been achieved in  10 iterations

     Forces acting on atoms (cartesian axes, Ry/au):

     atom    1 type  1   force =     0.00202383   -0.00039604    0.01639031
     atom    2 type  1   force =    -0.00325597    0.00367702    0.01636189
     atom    3 type  1   force =    -0.00058072   -0.00066615   -0.01725717
     atom    4 type  1   force =     0.00181287   -0.00261483   -0.01549503

     Total force =     0.033370     Total SCF correction =     0.000010


     Computing stress (Cartesian axis) and pressure

          total   stress  (Ry/bohr**3)                   (kbar)     P=59674.72
   0.40566608   0.00000104   0.00000095      59675.53      0.15      0.14
   0.00000104   0.40565473  -0.00000090          0.15  59673.86     -0.13
   0.00000095  -0.00000090   0.40566095          0.14     -0.13  59674.78


     Writing output data file fe_scf_fcc_2.save/
 
     init_run     :      0.09s CPU      0.14s WALL (       1 calls)
     electrons    :      1.20s CPU      1.32s WALL (       1 calls)
     forces       :      0.01s CPU      0.01s WALL (       1 calls)
     stress       :      0.01s CPU      0.01s WALL (       1 calls)

     Called by init_run:
     wfcinit      :      0.06s CPU      0.06s WALL (       1 calls)
     potinit      :      0.02s CPU      0.02s WALL (       1 calls)
     hinit0       :      0.02s CPU      0.05s WALL (       1 calls)

     Called by electrons:
     c_bands      :      0.92s CPU      1.00s WALL (      10 calls)
     sum_band     :      0.13s CPU      0.15s WALL (      10 calls)
     v_of_rho     :      0.01s CPU      0.01s WALL (      11 calls)
     newd         :      0.00s CPU      0.00s WALL (      11 calls)
     PAW_pot      :      0.13s CPU      0.15s WALL (      11 calls)
     mix_rho      :      0.00s CPU      0.00s WALL (      10 calls)

     Called by c_bands:
     init_us_2    :      0.01s CPU      0.01s WALL (     736 calls)
     cegterg      :      0.89s CPU      0.97s WALL (     320 calls)

     Called by sum_band:
     sum_band:bec :      0.00s CPU      0.00s WALL (     320 calls)
     addusdens    :      0.00s CPU      0.00s WALL (      10 calls)

     Called by *egterg:
     h_psi        :      0.64s CPU      0.70s WALL (    1039 calls)
     s_psi        :      0.01s CPU      0.01s WALL (    1039 calls)
     g_psi        :      0.00s CPU      0.00s WALL (     687 calls)
     cdiaghg      :      0.17s CPU      0.19s WALL (    1007 calls)

     Called by h_psi:
     h_psi:pot    :      0.64s CPU      0.70s WALL (    1039 calls)
     h_psi:calbec :      0.06s CPU      0.06s WALL (    1039 calls)
     vloc_psi     :      0.57s CPU      0.62s WALL (    1039 calls)
     add_vuspsi   :      0.01s CPU      0.01s WALL (    1039 calls)

     General routines
     calbec       :      0.08s CPU      0.09s WALL (    1519 calls)
     fft          :      0.02s CPU      0.05s WALL (     147 calls)
     ffts         :      0.00s CPU      0.00s WALL (      10 calls)
     fftw         :      0.63s CPU      0.69s WALL (   20830 calls)
 
     Parallel routines
     fft_scatt_xy :      0.04s CPU      0.04s WALL (   20987 calls)
     fft_scatt_yz :      0.51s CPU      0.56s WALL (   20987 calls)
 
     PWSCF        :     2.16s CPU         2.60s WALL

 
   This run was terminated on:  19: 2:13  22Oct2019            

=------------------------------------------------------------------------------=
   JOB DONE.
=------------------------------------------------------------------------------=
