
     Program PWSCF v.6.3 starts on 22Oct2019 at 19: 7:39 

     This program is part of the open-source Quantum ESPRESSO suite
     for quantum simulation of materials; please cite
         "P. Giannozzi et al., J. Phys.:Condens. Matter 21 395502 (2009);
         "P. Giannozzi et al., J. Phys.:Condens. Matter 29 465901 (2017);
          URL http://www.quantum-espresso.org", 
     in publications or presentations arising from this work. More details at
     http://www.quantum-espresso.org/quote

     Parallel version (MPI & OpenMP), running on      20 processor cores
     Number of MPI processes:                20
     Threads/MPI process:                     1

     MPI processes distributed on     1 nodes
     R & G space division:  proc/nbgrp/npool/nimage =      20
     Reading input from /rds/homes/b/bxp912/jobs/20191022_test/wd/runpwscf/file_10166.in
Warning: card &IONS ignored
Warning: card ION_DYNAMICS = 'BFGS', ignored
Warning: card / ignored
Warning: card &CELL ignored
Warning: card CELL_DYNAMICS = 'BFGS', ignored
Warning: card CELL_FACTOR = 2.0, ignored
Warning: card PRESS = 0.0, ignored
Warning: card / ignored

     Current dimensions of program PWSCF are:
     Max number of different atomic species (ntypx) = 10
     Max number of k-points (npk) =  40000
     Max angular momentum in pseudopotentials (lmaxx) =  3
     Message from routine read_upf::
     Pseudo file /rds/homes/b/bxp912/pp/Al.pbe-nl-kjpaw_psl.1.0.0.UPF has been successfully fixed on the fly.
To avoid this message in the future you can permanently fix 
 your pseudo files following instructions given in: 
https://gitlab.com/QEF/q-e/blob/master/upftools/how_to_fix_upf.md
               file Al.pbe-nl-kjpaw_psl.1.0.0.UPF: wavefunction(s)  3S 3P renormalized

     Subspace diagonalization in iterative solution of the eigenvalue problem:
     a serial algorithm will be used

 
     Parallelization info
     --------------------
     sticks:   dense  smooth     PW     G-vecs:    dense   smooth      PW
     Min          14      14      8                  184      184      74
     Max          15      15      9                  187      187      78
     Sum         293     293    161                 3695     3695    1503
 


     bravais-lattice index     =            0
     lattice parameter (alat)  =       4.0400  a.u.
     unit-cell volume          =      65.9393 (a.u.)^3
     number of atoms/cell      =            4
     number of atomic types    =            1
     number of electrons       =        12.00
     number of Kohn-Sham states=           10
     kinetic-energy cutoff     =     100.0000  Ry
     charge density cutoff     =     220.0000  Ry
     convergence threshold     =      1.0E-06
     mixing beta               =       0.1000
     number of iterations used =           10  TF        mixing
     Exchange-correlation      = SLA PW PBX PBC ( 1  4  3  4 0 0)

     celldm(1)=   4.040000  celldm(2)=   0.000000  celldm(3)=   0.000000
     celldm(4)=   0.000000  celldm(5)=   0.000000  celldm(6)=   0.000000

     crystal axes: (cart. coord. in units of alat)
               a(1) = (   1.000000   0.000000   0.000000 )  
               a(2) = (   0.000000   1.000000   0.000000 )  
               a(3) = (   0.000000   0.000000   1.000000 )  

     reciprocal axes: (cart. coord. in units 2 pi/alat)
               b(1) = (  1.000000  0.000000  0.000000 )  
               b(2) = (  0.000000  1.000000  0.000000 )  
               b(3) = (  0.000000  0.000000  1.000000 )  


     PseudoPot. # 1 for Al read from file:
     /rds/homes/b/bxp912/pp/Al.pbe-nl-kjpaw_psl.1.0.0.UPF
     MD5 check sum: 339dbea23cf3ab9a065ad45c0f9085d7
     Pseudo is Projector augmented-wave + core cor, Zval =  3.0
     Generated using "atomic" code by A. Dal Corso v.5.1
     Shape of augmentation charge: PSQ
     Using radial grid of 1135 points,  4 beta functions with: 
                l(1) =   0
                l(2) =   0
                l(3) =   1
                l(4) =   1
     Q(r) pseudized with 0 coefficients 


     atomic species   valence    mass     pseudopotential
        Al             3.00    26.98200     Al( 1.00)

     No symmetry found



   Cartesian axes

     site n.     atom                  positions (alat units)
         1           Al  tau(   1) = (  -0.0001235   0.0000359   0.0002572  )
         2           Al  tau(   2) = (   0.5003009   0.4992819   0.0002658  )
         3           Al  tau(   3) = (   0.4996490   0.0001153   0.5011170  )
         4           Al  tau(   4) = (  -0.0000756   0.5008267   0.5006943  )

     number of k points=    32  Marzari-Vanderbilt smearing, width (Ry)=  0.0200
                       cart. coord. in units 2pi/alat
        k(    1) = (   0.1250000   0.1250000   0.1250000), wk =   0.0625000
        k(    2) = (   0.1250000   0.1250000   0.3750000), wk =   0.0625000
        k(    3) = (   0.1250000   0.3750000   0.3750000), wk =   0.0625000
        k(    4) = (   0.3750000   0.3750000   0.3750000), wk =   0.0625000
        k(    5) = (  -0.1250000  -0.1250000   0.1250000), wk =   0.0625000
        k(    6) = (  -0.1250000   0.1250000  -0.1250000), wk =   0.0625000
        k(    7) = (   0.1250000  -0.1250000  -0.1250000), wk =   0.0625000
        k(    8) = (  -0.1250000  -0.1250000   0.3750000), wk =   0.0625000
        k(    9) = (  -0.1250000   0.1250000  -0.3750000), wk =   0.0625000
        k(   10) = (   0.1250000  -0.1250000  -0.3750000), wk =   0.0625000
        k(   11) = (   0.3750000  -0.1250000   0.1250000), wk =   0.0625000
        k(   12) = (  -0.3750000  -0.1250000  -0.1250000), wk =   0.0625000
        k(   13) = (   0.3750000   0.1250000  -0.1250000), wk =   0.0625000
        k(   14) = (  -0.3750000   0.1250000   0.1250000), wk =   0.0625000
        k(   15) = (  -0.1250000   0.3750000   0.1250000), wk =   0.0625000
        k(   16) = (  -0.1250000  -0.3750000  -0.1250000), wk =   0.0625000
        k(   17) = (   0.1250000   0.3750000  -0.1250000), wk =   0.0625000
        k(   18) = (   0.1250000  -0.3750000   0.1250000), wk =   0.0625000
        k(   19) = (  -0.1250000  -0.3750000   0.3750000), wk =   0.0625000
        k(   20) = (  -0.1250000   0.3750000  -0.3750000), wk =   0.0625000
        k(   21) = (   0.1250000  -0.3750000  -0.3750000), wk =   0.0625000
        k(   22) = (   0.3750000   0.1250000  -0.3750000), wk =   0.0625000
        k(   23) = (  -0.3750000  -0.1250000  -0.3750000), wk =   0.0625000
        k(   24) = (   0.3750000  -0.1250000   0.3750000), wk =   0.0625000
        k(   25) = (  -0.3750000   0.1250000   0.3750000), wk =   0.0625000
        k(   26) = (   0.3750000  -0.3750000   0.1250000), wk =   0.0625000
        k(   27) = (  -0.3750000  -0.3750000  -0.1250000), wk =   0.0625000
        k(   28) = (   0.3750000   0.3750000  -0.1250000), wk =   0.0625000
        k(   29) = (  -0.3750000   0.3750000   0.1250000), wk =   0.0625000
        k(   30) = (  -0.3750000  -0.3750000   0.3750000), wk =   0.0625000
        k(   31) = (  -0.3750000   0.3750000  -0.3750000), wk =   0.0625000
        k(   32) = (   0.3750000  -0.3750000  -0.3750000), wk =   0.0625000

     Dense  grid:     3695 G-vectors     FFT dimensions: (  20,  20,  20)

     Estimated max dynamical RAM per process >       0.82 MB

     Estimated total dynamical RAM >      16.37 MB

     Initial potential from superposition of free atoms

     starting charge   11.99084, renormalised to   12.00000
     Starting wfcs are   16 randomized atomic wfcs
     Checking if some PAW data can be deallocated... 

     total cpu time spent up to now is        0.7 secs

     Self-consistent Calculation

     iteration #  1     ecut=   100.00 Ry     beta= 0.10
     Davidson diagonalization with overlap
     ethr =  1.00E-02,  avg # of iterations =  4.9

     total cpu time spent up to now is        0.9 secs

     total energy              =    -141.65274811 Ry
     Harris-Foulkes estimate   =    -141.80702123 Ry
     estimated scf accuracy    <       0.18120038 Ry

     iteration #  2     ecut=   100.00 Ry     beta= 0.10
     Davidson diagonalization with overlap
     ethr =  1.51E-03,  avg # of iterations =  1.0

     total cpu time spent up to now is        1.0 secs

     total energy              =    -141.16264431 Ry
     Harris-Foulkes estimate   =    -141.65536644 Ry
     estimated scf accuracy    <       0.15202570 Ry

     iteration #  3     ecut=   100.00 Ry     beta= 0.10
     Davidson diagonalization with overlap
     ethr =  1.27E-03,  avg # of iterations =  2.0

     total cpu time spent up to now is        1.2 secs

     total energy              =    -141.24430190 Ry
     Harris-Foulkes estimate   =    -141.25575549 Ry
     estimated scf accuracy    <       0.01561760 Ry

     iteration #  4     ecut=   100.00 Ry     beta= 0.10
     Davidson diagonalization with overlap
     ethr =  1.30E-04,  avg # of iterations =  1.0

     total cpu time spent up to now is        1.3 secs

     total energy              =    -141.24161720 Ry
     Harris-Foulkes estimate   =    -141.24470511 Ry
     estimated scf accuracy    <       0.01255303 Ry

     iteration #  5     ecut=   100.00 Ry     beta= 0.10
     Davidson diagonalization with overlap
     ethr =  1.05E-04,  avg # of iterations =  1.0

     total cpu time spent up to now is        1.4 secs

     total energy              =    -141.24344067 Ry
     Harris-Foulkes estimate   =    -141.24267324 Ry
     estimated scf accuracy    <       0.00084293 Ry

     iteration #  6     ecut=   100.00 Ry     beta= 0.10
     Davidson diagonalization with overlap
     ethr =  7.02E-06,  avg # of iterations =  2.5

     total cpu time spent up to now is        1.5 secs

     total energy              =    -141.24372489 Ry
     Harris-Foulkes estimate   =    -141.24371867 Ry
     estimated scf accuracy    <       0.00011361 Ry

     iteration #  7     ecut=   100.00 Ry     beta= 0.10
     Davidson diagonalization with overlap
     ethr =  9.47E-07,  avg # of iterations =  1.2

     total cpu time spent up to now is        1.6 secs

     total energy              =    -141.24280628 Ry
     Harris-Foulkes estimate   =    -141.24372702 Ry
     estimated scf accuracy    <       0.00009000 Ry

     iteration #  8     ecut=   100.00 Ry     beta= 0.10
     Davidson diagonalization with overlap
     ethr =  7.50E-07,  avg # of iterations =  2.8

     total cpu time spent up to now is        1.7 secs

     total energy              =    -141.24298107 Ry
     Harris-Foulkes estimate   =    -141.24288219 Ry
     estimated scf accuracy    <       0.00002038 Ry

     iteration #  9     ecut=   100.00 Ry     beta= 0.10
     Davidson diagonalization with overlap
     ethr =  1.70E-07,  avg # of iterations =  2.0

     total cpu time spent up to now is        1.9 secs

     total energy              =    -141.24284644 Ry
     Harris-Foulkes estimate   =    -141.24298685 Ry
     estimated scf accuracy    <       0.00000782 Ry

     iteration # 10     ecut=   100.00 Ry     beta= 0.10
     Davidson diagonalization with overlap
     ethr =  6.52E-08,  avg # of iterations =  3.0

     total cpu time spent up to now is        2.0 secs

     End of self-consistent calculation

          k = 0.1250 0.1250 0.1250 (  1108 PWs)   bands (ev):

    30.9121  41.4358  41.4549  41.4737  52.4289  52.4492  52.4693  54.9302
    54.9401  54.9501

          k = 0.1250 0.1250 0.3750 (  1115 PWs)   bands (ev):

    34.4051  39.0118  43.9410  43.9599  51.8108  51.8281  54.8767  54.8854
    55.6921  61.5160

          k = 0.1250 0.3750 0.3750 (  1111 PWs)   bands (ev):

    37.4204  41.6554  41.6924  44.5476  50.4932  52.9059  52.9550  57.0460
    57.5676  60.7348

          k = 0.3750 0.3750 0.3750 (  1106 PWs)   bands (ev):

    39.8862  43.9750  44.0130  44.0508  47.7740  47.8155  47.8571  51.6496
    66.9740  66.9781

          k =-0.1250-0.1250 0.1250 (  1108 PWs)   bands (ev):

    30.9121  41.4398  41.4549  41.4697  52.4331  52.4491  52.4651  54.9323
    54.9401  54.9480

          k =-0.1250 0.1250-0.1250 (  1108 PWs)   bands (ev):

    30.9121  41.4437  41.4549  41.4658  52.4373  52.4491  52.4609  54.9343
    54.9401  54.9460

          k = 0.1250-0.1250-0.1250 (  1108 PWs)   bands (ev):

    30.9121  41.4416  41.4549  41.4679  52.4351  52.4492  52.4631  54.9332
    54.9401  54.9470

          k =-0.1250-0.1250 0.3750 (  1115 PWs)   bands (ev):

    34.4051  39.0118  43.9410  43.9598  51.8109  51.8281  54.8768  54.8854
    55.6919  61.5161

          k =-0.1250 0.1250-0.3750 (  1115 PWs)   bands (ev):

    34.4051  39.0118  43.9461  43.9547  51.8155  51.8234  54.8791  54.8831
    55.6919  61.5160

          k = 0.1250-0.1250-0.3750 (  1115 PWs)   bands (ev):

    34.4051  39.0118  43.9461  43.9548  51.8155  51.8234  54.8791  54.8831
    55.6921  61.5161

          k = 0.3750-0.1250 0.1250 (  1115 PWs)   bands (ev):

    34.4051  39.0117  43.9461  43.9548  51.8153  51.8233  54.8792  54.8833
    55.6921  61.5162

          k =-0.3750-0.1250-0.1250 (  1115 PWs)   bands (ev):

    34.4051  39.0116  43.9425  43.9585  51.8122  51.8269  54.8770  54.8844
    55.6927  61.5161

          k = 0.3750 0.1250-0.1250 (  1115 PWs)   bands (ev):

    34.4051  39.0117  43.9461  43.9549  51.8153  51.8233  54.8792  54.8833
    55.6922  61.5160

          k =-0.3750 0.1250 0.1250 (  1115 PWs)   bands (ev):

    34.4051  39.0117  43.9424  43.9585  51.8123  51.8269  54.8771  54.8845
    55.6924  61.5160

          k =-0.1250 0.3750 0.1250 (  1115 PWs)   bands (ev):

    34.4051  39.0116  43.9494  43.9518  51.8184  51.8206  54.8804  54.8815
    55.6921  61.5162

          k =-0.1250-0.3750-0.1250 (  1115 PWs)   bands (ev):

    34.4051  39.0116  43.9459  43.9553  51.8151  51.8237  54.8789  54.8832
    55.6921  61.5161

          k = 0.1250 0.3750-0.1250 (  1115 PWs)   bands (ev):

    34.4051  39.0116  43.9494  43.9518  51.8183  51.8205  54.8803  54.8815
    55.6924  61.5161

          k = 0.1250-0.3750 0.1250 (  1115 PWs)   bands (ev):

    34.4051  39.0116  43.9459  43.9553  51.8151  51.8237  54.8789  54.8832
    55.6920  61.5160

          k =-0.1250-0.3750 0.3750 (  1111 PWs)   bands (ev):

    37.4204  41.6639  41.6840  44.5474  50.4934  52.9170  52.9438  57.0453
    57.5685  60.7363

          k =-0.1250 0.3750-0.3750 (  1111 PWs)   bands (ev):

    37.4204  41.6639  41.6840  44.5474  50.4933  52.9169  52.9437  57.0450
    57.5690  60.7344

          k = 0.1250-0.3750-0.3750 (  1111 PWs)   bands (ev):

    37.4204  41.6554  41.6924  44.5476  50.4932  52.9059  52.9550  57.0456
    57.5678  60.7328

          k = 0.3750 0.1250-0.3750 (  1111 PWs)   bands (ev):

    37.4204  41.6711  41.6767  44.5475  50.4932  52.9268  52.9342  57.0460
    57.5678  60.7358

          k =-0.3750-0.1250-0.3750 (  1111 PWs)   bands (ev):

    37.4204  41.6630  41.6848  44.5473  50.4934  52.9161  52.9450  57.0462
    57.5674  60.7332

          k = 0.3750-0.1250 0.3750 (  1111 PWs)   bands (ev):

    37.4204  41.6631  41.6848  44.5474  50.4932  52.9160  52.9449  57.0464
    57.5675  60.7338

          k =-0.3750 0.1250 0.3750 (  1111 PWs)   bands (ev):

    37.4204  41.6711  41.6767  44.5474  50.4933  52.9269  52.9343  57.0457
    57.5678  60.7359

          k = 0.3750-0.3750 0.1250 (  1111 PWs)   bands (ev):

    37.4205  41.6640  41.6838  44.5475  50.4930  52.9171  52.9436  57.0463
    57.5676  60.7356

          k =-0.3750-0.3750-0.1250 (  1111 PWs)   bands (ev):

    37.4205  41.6522  41.6956  44.5474  50.4934  52.9015  52.9593  57.0442
    57.5696  60.7328

          k = 0.3750 0.3750-0.1250 (  1111 PWs)   bands (ev):

    37.4205  41.6522  41.6956  44.5474  50.4932  52.9014  52.9592  57.0463
    57.5675  60.7311

          k =-0.3750 0.3750 0.1250 (  1111 PWs)   bands (ev):

    37.4205  41.6640  41.6838  44.5475  50.4933  52.9172  52.9437  57.0416
    57.5721  60.7343

          k =-0.3750-0.3750 0.3750 (  1106 PWs)   bands (ev):

    39.8861  43.9829  44.0130  44.0428  47.7827  47.8155  47.8483  51.6497
    66.9730  66.9775

          k =-0.3750 0.3750-0.3750 (  1106 PWs)   bands (ev):

    39.8861  43.9907  44.0129  44.0350  47.7913  47.8155  47.8398  51.6498
    66.9734  66.9768

          k = 0.3750-0.3750-0.3750 (  1106 PWs)   bands (ev):

    39.8861  43.9866  44.0129  44.0391  47.7868  47.8156  47.8444  51.6496
    66.9726  66.9759

     the Fermi energy is    52.6607 ev

!    total energy              =    -141.24285754 Ry
     Harris-Foulkes estimate   =    -141.24285851 Ry
     estimated scf accuracy    <       0.00000077 Ry

     total all-electron energy =     -1925.813985 Ry

     The total energy is the sum of the following terms:

     one-electron contribution =      58.67255988 Ry
     hartree contribution      =       0.21192866 Ry
     xc contribution           =     -17.28505270 Ry
     ewald contribution        =     -40.85514765 Ry
     one-center paw contrib.   =    -141.98651028 Ry
     smearing contrib. (-TS)   =      -0.00063545 Ry

     convergence has been achieved in  10 iterations

     Forces acting on atoms (cartesian axes, Ry/au):

     atom    1 type  1   force =     0.00202002   -0.00040015    0.01639973
     atom    2 type  1   force =    -0.00325970    0.00367450    0.01636814
     atom    3 type  1   force =    -0.00057457   -0.00066594   -0.01726663
     atom    4 type  1   force =     0.00181425   -0.00260841   -0.01550124

     Total force =     0.033385     Total SCF correction =     0.000010


     Computing stress (Cartesian axis) and pressure

          total   stress  (Ry/bohr**3)                   (kbar)     P=59674.11
   0.40566192   0.00000126   0.00000088      59674.92      0.18      0.13
   0.00000126   0.40565050  -0.00000096          0.18  59673.24     -0.14
   0.00000088  -0.00000096   0.40565690          0.13     -0.14  59674.18


     Writing output data file fe_scf_fcc_2.save/
 
     init_run     :      0.11s CPU      0.15s WALL (       1 calls)
     electrons    :      1.22s CPU      1.34s WALL (       1 calls)
     forces       :      0.01s CPU      0.01s WALL (       1 calls)
     stress       :      0.02s CPU      0.02s WALL (       1 calls)

     Called by init_run:
     wfcinit      :      0.06s CPU      0.06s WALL (       1 calls)
     potinit      :      0.01s CPU      0.03s WALL (       1 calls)
     hinit0       :      0.04s CPU      0.05s WALL (       1 calls)

     Called by electrons:
     c_bands      :      0.91s CPU      1.00s WALL (      10 calls)
     sum_band     :      0.17s CPU      0.18s WALL (      10 calls)
     v_of_rho     :      0.01s CPU      0.01s WALL (      11 calls)
     newd         :      0.00s CPU      0.00s WALL (      11 calls)
     PAW_pot      :      0.13s CPU      0.14s WALL (      11 calls)
     mix_rho      :      0.00s CPU      0.00s WALL (      10 calls)

     Called by c_bands:
     init_us_2    :      0.01s CPU      0.01s WALL (     736 calls)
     cegterg      :      0.88s CPU      0.97s WALL (     320 calls)

     Called by sum_band:
     sum_band:bec :      0.00s CPU      0.00s WALL (     320 calls)
     addusdens    :      0.00s CPU      0.00s WALL (      10 calls)

     Called by *egterg:
     h_psi        :      0.64s CPU      0.71s WALL (    1037 calls)
     s_psi        :      0.01s CPU      0.01s WALL (    1037 calls)
     g_psi        :      0.00s CPU      0.00s WALL (     685 calls)
     cdiaghg      :      0.17s CPU      0.18s WALL (    1005 calls)

     Called by h_psi:
     h_psi:pot    :      0.64s CPU      0.70s WALL (    1037 calls)
     h_psi:calbec :      0.05s CPU      0.06s WALL (    1037 calls)
     vloc_psi     :      0.57s CPU      0.62s WALL (    1037 calls)
     add_vuspsi   :      0.01s CPU      0.01s WALL (    1037 calls)

     General routines
     calbec       :      0.08s CPU      0.09s WALL (    1517 calls)
     fft          :      0.03s CPU      0.05s WALL (     147 calls)
     ffts         :      0.00s CPU      0.00s WALL (      10 calls)
     fftw         :      0.66s CPU      0.72s WALL (   20746 calls)
 
     Parallel routines
     fft_scatt_xy :      0.04s CPU      0.04s WALL (   20903 calls)
     fft_scatt_yz :      0.55s CPU      0.61s WALL (   20903 calls)
 
     PWSCF        :     1.91s CPU         2.38s WALL

 
   This run was terminated on:  19: 7:42  22Oct2019            

=------------------------------------------------------------------------------=
   JOB DONE.
=------------------------------------------------------------------------------=
