
     Program PWSCF v.6.4.1 starts on 24Feb2020 at 15:48:54 

     This program is part of the open-source Quantum ESPRESSO suite
     for quantum simulation of materials; please cite
         "P. Giannozzi et al., J. Phys.:Condens. Matter 21 395502 (2009);
         "P. Giannozzi et al., J. Phys.:Condens. Matter 29 465901 (2017);
          URL http://www.quantum-espresso.org", 
     in publications or presentations arising from this work. More details at
     http://www.quantum-espresso.org/quote

     Parallel version (MPI), running on     4 processors

     MPI processes distributed on     1 nodes
     R & G space division:  proc/nbgrp/npool/nimage =       4
     Reading input from /cloud/Code/python/py_pwscf_converge/src/example2/wd/runpwscf/file_10103.in
Warning: card &IONS ignored
Warning: card ION_DYNAMICS = 'BFGS', ignored
Warning: card / ignored
Warning: card &CELL ignored
Warning: card CELL_DYNAMICS = 'BFGS', ignored
Warning: card CELL_FACTOR = 2.0, ignored
Warning: card PRESS = 0.0, ignored
Warning: card / ignored

     Current dimensions of program PWSCF are:
     Max number of different atomic species (ntypx) = 10
     Max number of k-points (npk) =  40000
     Max angular momentum in pseudopotentials (lmaxx) =  3
               file Al.pbe-nl-kjpaw_psl.1.0.0.UPF: wavefunction(s)  3S 3P renormalized

     Subspace diagonalization in iterative solution of the eigenvalue problem:
     a serial algorithm will be used


     Parallelization info
     --------------------
     sticks:   dense  smooth     PW     G-vecs:    dense   smooth      PW
     Min         209     209     68                 4509     4509     821
     Max         213     213     70                 4510     4510     822
     Sum         845     845    277                18037    18037    3287



     bravais-lattice index     =            0
     lattice parameter (alat)  =       7.6356  a.u.
     unit-cell volume          =     445.1737 (a.u.)^3
     number of atoms/cell      =            2
     number of atomic types    =            1
     number of electrons       =         6.00
     number of Kohn-Sham states=            7
     kinetic-energy cutoff     =      50.0000  Ry
     charge density cutoff     =     180.0000  Ry
     convergence threshold     =      1.0E-06
     mixing beta               =       0.1000
     number of iterations used =           10  TF        mixing
     Exchange-correlation      = SLA PW PBX PBC ( 1  4  3  4 0 0)

     celldm(1)=   7.635600  celldm(2)=   0.000000  celldm(3)=   0.000000
     celldm(4)=   0.000000  celldm(5)=   0.000000  celldm(6)=   0.000000

     crystal axes: (cart. coord. in units of alat)
               a(1) = (   1.000000   0.000000   0.000000 )  
               a(2) = (   0.000000   1.000000   0.000000 )  
               a(3) = (   0.000000   0.000000   1.000000 )  

     reciprocal axes: (cart. coord. in units 2 pi/alat)
               b(1) = (  1.000000  0.000000  0.000000 )  
               b(2) = (  0.000000  1.000000  0.000000 )  
               b(3) = (  0.000000  0.000000  1.000000 )  


     PseudoPot. # 1 for Al read from file:
     /opt/pp/Al.pbe-nl-kjpaw_psl.1.0.0.UPF
     MD5 check sum: 1b67f78b73fe58c7924490f171ce8a1e
     Pseudo is Projector augmented-wave + core cor, Zval =  3.0
     Generated using "atomic" code by A. Dal Corso v.6.3
     Shape of augmentation charge: PSQ
     Using radial grid of 1135 points,  4 beta functions with: 
                l(1) =   0
                l(2) =   0
                l(3) =   1
                l(4) =   1
     Q(r) pseudized with 0 coefficients 


     atomic species   valence    mass     pseudopotential
        Al             3.00    26.98200     Al( 1.00)

     No symmetry found



   Cartesian axes

     site n.     atom                  positions (alat units)
         1           Al  tau(   1) = (  -0.0000654   0.0000190   0.0001361  )
         2           Al  tau(   2) = (   0.5001592   0.4996200   0.5001406  )

     number of k points=    32  Marzari-Vanderbilt smearing, width (Ry)=  0.0200
                       cart. coord. in units 2pi/alat
        k(    1) = (   0.1250000   0.1250000   0.1250000), wk =   0.0625000
        k(    2) = (   0.1250000   0.1250000   0.3750000), wk =   0.0625000
        k(    3) = (   0.1250000   0.3750000   0.3750000), wk =   0.0625000
        k(    4) = (   0.3750000   0.3750000   0.3750000), wk =   0.0625000
        k(    5) = (  -0.1250000  -0.1250000   0.1250000), wk =   0.0625000
        k(    6) = (  -0.1250000   0.1250000  -0.1250000), wk =   0.0625000
        k(    7) = (   0.1250000  -0.1250000  -0.1250000), wk =   0.0625000
        k(    8) = (  -0.1250000  -0.1250000   0.3750000), wk =   0.0625000
        k(    9) = (  -0.1250000   0.1250000  -0.3750000), wk =   0.0625000
        k(   10) = (   0.1250000  -0.1250000  -0.3750000), wk =   0.0625000
        k(   11) = (   0.3750000  -0.1250000   0.1250000), wk =   0.0625000
        k(   12) = (  -0.3750000  -0.1250000  -0.1250000), wk =   0.0625000
        k(   13) = (   0.3750000   0.1250000  -0.1250000), wk =   0.0625000
        k(   14) = (  -0.3750000   0.1250000   0.1250000), wk =   0.0625000
        k(   15) = (  -0.1250000   0.3750000   0.1250000), wk =   0.0625000
        k(   16) = (  -0.1250000  -0.3750000  -0.1250000), wk =   0.0625000
        k(   17) = (   0.1250000   0.3750000  -0.1250000), wk =   0.0625000
        k(   18) = (   0.1250000  -0.3750000   0.1250000), wk =   0.0625000
        k(   19) = (  -0.1250000  -0.3750000   0.3750000), wk =   0.0625000
        k(   20) = (  -0.1250000   0.3750000  -0.3750000), wk =   0.0625000
        k(   21) = (   0.1250000  -0.3750000  -0.3750000), wk =   0.0625000
        k(   22) = (   0.3750000   0.1250000  -0.3750000), wk =   0.0625000
        k(   23) = (  -0.3750000  -0.1250000  -0.3750000), wk =   0.0625000
        k(   24) = (   0.3750000  -0.1250000   0.3750000), wk =   0.0625000
        k(   25) = (  -0.3750000   0.1250000   0.3750000), wk =   0.0625000
        k(   26) = (   0.3750000  -0.3750000   0.1250000), wk =   0.0625000
        k(   27) = (  -0.3750000  -0.3750000  -0.1250000), wk =   0.0625000
        k(   28) = (   0.3750000   0.3750000  -0.1250000), wk =   0.0625000
        k(   29) = (  -0.3750000   0.3750000   0.1250000), wk =   0.0625000
        k(   30) = (  -0.3750000  -0.3750000   0.3750000), wk =   0.0625000
        k(   31) = (  -0.3750000   0.3750000  -0.3750000), wk =   0.0625000
        k(   32) = (   0.3750000  -0.3750000  -0.3750000), wk =   0.0625000

     Dense  grid:    18037 G-vectors     FFT dimensions: (  36,  36,  36)

     Estimated max dynamical RAM per process >       9.27 MB

     Estimated total dynamical RAM >      37.08 MB

     Initial potential from superposition of free atoms

     starting charge    5.99542, renormalised to    6.00000
     Starting wfcs are    8 randomized atomic wfcs
     Checking if some PAW data can be deallocated... 

     total cpu time spent up to now is        0.8 secs

     Self-consistent Calculation

     iteration #  1     ecut=    50.00 Ry     beta= 0.10
     Davidson diagonalization with overlap
     ethr =  1.00E-02,  avg # of iterations =  3.0

     Threshold (ethr) on eigenvalues was too large:
     Diagonalizing with lowered threshold

     Davidson diagonalization with overlap
     ethr =  1.36E-04,  avg # of iterations =  2.6

     total cpu time spent up to now is        1.8 secs

     total energy              =     -78.84837471 Ry
     Harris-Foulkes estimate   =     -78.84866831 Ry
     estimated scf accuracy    <       0.00802538 Ry

     iteration #  2     ecut=    50.00 Ry     beta= 0.10
     Davidson diagonalization with overlap
     ethr =  1.34E-04,  avg # of iterations =  1.0

     total cpu time spent up to now is        2.2 secs

     total energy              =     -78.84618687 Ry
     Harris-Foulkes estimate   =     -78.84840592 Ry
     estimated scf accuracy    <       0.00702945 Ry

     iteration #  3     ecut=    50.00 Ry     beta= 0.10
     Davidson diagonalization with overlap
     ethr =  1.17E-04,  avg # of iterations =  1.0

     total cpu time spent up to now is        2.5 secs

     total energy              =     -78.84653844 Ry
     Harris-Foulkes estimate   =     -78.84658338 Ry
     estimated scf accuracy    <       0.00004439 Ry

     iteration #  4     ecut=    50.00 Ry     beta= 0.10
     Davidson diagonalization with overlap
     ethr =  7.40E-07,  avg # of iterations =  3.4

     total cpu time spent up to now is        3.1 secs

     total energy              =     -78.84650427 Ry
     Harris-Foulkes estimate   =     -78.84658778 Ry
     estimated scf accuracy    <       0.00003012 Ry

     iteration #  5     ecut=    50.00 Ry     beta= 0.10
     Davidson diagonalization with overlap
     ethr =  5.02E-07,  avg # of iterations =  2.0

     total cpu time spent up to now is        3.6 secs

     total energy              =     -78.84647345 Ry
     Harris-Foulkes estimate   =     -78.84650960 Ry
     estimated scf accuracy    <       0.00003848 Ry

     iteration #  6     ecut=    50.00 Ry     beta= 0.10
     Davidson diagonalization with overlap
     ethr =  5.02E-07,  avg # of iterations =  2.0

     total cpu time spent up to now is        4.0 secs

     End of self-consistent calculation

          k = 0.1250 0.1250 0.1250 (  2659 PWs)   bands (ev):

    -4.4253   1.0105   2.7008   2.7008   5.4536   7.3968   7.7336

          k = 0.1250 0.1250 0.3750 (  2664 PWs)   bands (ev):

    -3.3348  -1.2261   2.9072   3.7501   4.8830   5.8011   6.8320

          k = 0.1250 0.3750 0.3750 (  2656 PWs)   bands (ev):

    -2.2804  -0.7132   0.7117   2.2460   4.4305   5.9921   7.0170

          k = 0.3750 0.3750 0.3750 (  2647 PWs)   bands (ev):

    -1.2686  -0.1188   1.7875   1.7875   2.5357   3.9199   3.9199

          k =-0.1250-0.1250 0.1250 (  2659 PWs)   bands (ev):

    -4.4253   1.0105   2.7008   2.7008   5.4536   7.3968   7.7337

          k =-0.1250 0.1250-0.1250 (  2659 PWs)   bands (ev):

    -4.4253   1.0105   2.7008   2.7008   5.4536   7.3969   7.7336

          k = 0.1250-0.1250-0.1250 (  2659 PWs)   bands (ev):

    -4.4253   1.0105   2.7008   2.7008   5.4536   7.3969   7.7336

          k =-0.1250-0.1250 0.3750 (  2664 PWs)   bands (ev):

    -3.3348  -1.2261   2.9072   3.7501   4.8830   5.8011   6.8320

          k =-0.1250 0.1250-0.3750 (  2664 PWs)   bands (ev):

    -3.3348  -1.2261   2.9072   3.7501   4.8831   5.8010   6.8320

          k = 0.1250-0.1250-0.3750 (  2664 PWs)   bands (ev):

    -3.3348  -1.2261   2.9072   3.7501   4.8830   5.8010   6.8320

          k = 0.3750-0.1250 0.1250 (  2664 PWs)   bands (ev):

    -3.3348  -1.2261   2.9072   3.7501   4.8831   5.8010   6.8320

          k =-0.3750-0.1250-0.1250 (  2664 PWs)   bands (ev):

    -3.3348  -1.2261   2.9072   3.7501   4.8830   5.8011   6.8320

          k = 0.3750 0.1250-0.1250 (  2664 PWs)   bands (ev):

    -3.3348  -1.2261   2.9072   3.7501   4.8830   5.8010   6.8320

          k =-0.3750 0.1250 0.1250 (  2664 PWs)   bands (ev):

    -3.3348  -1.2261   2.9072   3.7501   4.8831   5.8011   6.8320

          k =-0.1250 0.3750 0.1250 (  2664 PWs)   bands (ev):

    -3.3348  -1.2261   2.9072   3.7501   4.8831   5.8011   6.8320

          k =-0.1250-0.3750-0.1250 (  2664 PWs)   bands (ev):

    -3.3348  -1.2261   2.9072   3.7501   4.8830   5.8011   6.8320

          k = 0.1250 0.3750-0.1250 (  2664 PWs)   bands (ev):

    -3.3348  -1.2261   2.9072   3.7501   4.8830   5.8011   6.8320

          k = 0.1250-0.3750 0.1250 (  2664 PWs)   bands (ev):

    -3.3348  -1.2261   2.9072   3.7501   4.8831   5.8011   6.8320

          k =-0.1250-0.3750 0.3750 (  2656 PWs)   bands (ev):

    -2.2804  -0.7133   0.7117   2.2460   4.4305   5.9921   7.0170

          k =-0.1250 0.3750-0.3750 (  2656 PWs)   bands (ev):

    -2.2804  -0.7133   0.7117   2.2460   4.4305   5.9921   7.0170

          k = 0.1250-0.3750-0.3750 (  2656 PWs)   bands (ev):

    -2.2804  -0.7132   0.7117   2.2460   4.4305   5.9921   7.0170

          k = 0.3750 0.1250-0.3750 (  2656 PWs)   bands (ev):

    -2.2804  -0.7132   0.7117   2.2460   4.4305   5.9921   7.0170

          k =-0.3750-0.1250-0.3750 (  2656 PWs)   bands (ev):

    -2.2804  -0.7132   0.7117   2.2460   4.4305   5.9921   7.0171

          k = 0.3750-0.1250 0.3750 (  2656 PWs)   bands (ev):

    -2.2804  -0.7132   0.7117   2.2460   4.4305   5.9921   7.0170

          k =-0.3750 0.1250 0.3750 (  2656 PWs)   bands (ev):

    -2.2804  -0.7132   0.7117   2.2460   4.4305   5.9921   7.0170

          k = 0.3750-0.3750 0.1250 (  2656 PWs)   bands (ev):

    -2.2804  -0.7132   0.7117   2.2460   4.4305   5.9921   7.0170

          k =-0.3750-0.3750-0.1250 (  2656 PWs)   bands (ev):

    -2.2804  -0.7133   0.7117   2.2460   4.4305   5.9921   7.0170

          k = 0.3750 0.3750-0.1250 (  2656 PWs)   bands (ev):

    -2.2804  -0.7133   0.7117   2.2460   4.4305   5.9921   7.0170

          k =-0.3750 0.3750 0.1250 (  2656 PWs)   bands (ev):

    -2.2804  -0.7132   0.7117   2.2460   4.4305   5.9921   7.0170

          k =-0.3750-0.3750 0.3750 (  2647 PWs)   bands (ev):

    -1.2686  -0.1188   1.7875   1.7875   2.5357   3.9199   3.9199

          k =-0.3750 0.3750-0.3750 (  2647 PWs)   bands (ev):

    -1.2686  -0.1188   1.7875   1.7875   2.5357   3.9199   3.9199

          k = 0.3750-0.3750-0.3750 (  2647 PWs)   bands (ev):

    -1.2686  -0.1187   1.7875   1.7875   2.5357   3.9199   3.9199

     the Fermi energy is     2.4394 ev

!    total energy              =     -78.84647597 Ry
     Harris-Foulkes estimate   =     -78.84647768 Ry
     estimated scf accuracy    <       0.00000077 Ry

     total all-electron energy =      -971.132037 Ry

     The total energy is the sum of the following terms:

     one-electron contribution =       3.57736452 Ry
     hartree contribution      =       0.10227590 Ry
     xc contribution           =      -4.62866215 Ry
     ewald contribution        =      -8.57905004 Ry
     one-center paw contrib.   =     -69.31767567 Ry
     smearing contrib. (-TS)   =      -0.00072853 Ry

     convergence has been achieved in   6 iterations

     Forces acting on atoms (cartesian axes, Ry/au):

     atom    1 type  1   force =     0.00001627   -0.00001948    0.00000148
     atom    2 type  1   force =    -0.00001627    0.00001948   -0.00000148

     Total force =     0.000036     Total SCF correction =     0.000106
     SCF correction compared to forces is large: reduce conv_thr to get better values


     Computing stress (Cartesian axis) and pressure

          total   stress  (Ry/bohr**3)                   (kbar)     P=  -93.08
  -0.00063272  -0.00000000  -0.00000001        -93.08     -0.00     -0.00
  -0.00000000  -0.00063275   0.00000001         -0.00    -93.08      0.00
  -0.00000001   0.00000001  -0.00063272         -0.00      0.00    -93.08


     Writing output data file fe_scf_fcc_2.save/

     init_run     :      0.31s CPU      0.32s WALL (       1 calls)
     electrons    :      3.11s CPU      3.27s WALL (       1 calls)
     forces       :      0.05s CPU      0.05s WALL (       1 calls)
     stress       :      0.15s CPU      0.15s WALL (       1 calls)

     Called by init_run:
     wfcinit      :      0.19s CPU      0.21s WALL (       1 calls)
     potinit      :      0.04s CPU      0.04s WALL (       1 calls)
     hinit0       :      0.06s CPU      0.06s WALL (       1 calls)

     Called by electrons:
     c_bands      :      2.44s CPU      2.58s WALL (       7 calls)
     sum_band     :      0.44s CPU      0.45s WALL (       7 calls)
     v_of_rho     :      0.05s CPU      0.06s WALL (       7 calls)
     newd         :      0.03s CPU      0.03s WALL (       7 calls)
     PAW_pot      :      0.18s CPU      0.18s WALL (       7 calls)
     mix_rho      :      0.01s CPU      0.01s WALL (       7 calls)

     Called by c_bands:
     init_us_2    :      0.07s CPU      0.07s WALL (     544 calls)
     cegterg      :      2.35s CPU      2.48s WALL (     224 calls)

     Called by sum_band:
     sum_band:bec :      0.00s CPU      0.00s WALL (     224 calls)
     addusdens    :      0.02s CPU      0.02s WALL (       7 calls)

     Called by *egterg:
     h_psi        :      2.07s CPU      2.20s WALL (     735 calls)
     s_psi        :      0.07s CPU      0.07s WALL (     735 calls)
     g_psi        :      0.01s CPU      0.01s WALL (     479 calls)
     cdiaghg      :      0.07s CPU      0.08s WALL (     671 calls)

     Called by h_psi:
     h_psi:pot    :      2.06s CPU      2.19s WALL (     735 calls)
     h_psi:calbec :      0.12s CPU      0.13s WALL (     735 calls)
     vloc_psi     :      1.87s CPU      1.99s WALL (     735 calls)
     add_vuspsi   :      0.07s CPU      0.07s WALL (     735 calls)

     General routines
     calbec       :      0.21s CPU      0.22s WALL (    1119 calls)
     fft          :      0.04s CPU      0.04s WALL (     103 calls)
     ffts         :      0.00s CPU      0.00s WALL (       7 calls)
     fftw         :      2.07s CPU      2.20s WALL (   10130 calls)

     Parallel routines
     fft_scatt_xy :      0.17s CPU      0.18s WALL (   10240 calls)
     fft_scatt_yz :      0.70s CPU      0.75s WALL (   10240 calls)

     PWSCF        :      4.06s CPU      4.29s WALL


   This run was terminated on:  15:48:58  24Feb2020            

=------------------------------------------------------------------------------=
   JOB DONE.
=------------------------------------------------------------------------------=
