
     Program PWSCF v.6.3 starts on 30Oct2019 at  0:19:53 

     This program is part of the open-source Quantum ESPRESSO suite
     for quantum simulation of materials; please cite
         "P. Giannozzi et al., J. Phys.:Condens. Matter 21 395502 (2009);
         "P. Giannozzi et al., J. Phys.:Condens. Matter 29 465901 (2017);
          URL http://www.quantum-espresso.org", 
     in publications or presentations arising from this work. More details at
     http://www.quantum-espresso.org/quote

     Parallel version (MPI), running on     1 processors

     MPI processes distributed on     1 nodes
     Reading input from /cloud/Code/python/py_pwscf_converge/src/example2/wd/runpwscf/file_10016.in
Warning: card &IONS ignored
Warning: card ION_DYNAMICS = 'BFGS', ignored
Warning: card / ignored
Warning: card &CELL ignored
Warning: card CELL_DYNAMICS = 'BFGS', ignored
Warning: card CELL_FACTOR = 2.0, ignored
Warning: card PRESS = 0.0, ignored
Warning: card / ignored

     Current dimensions of program PWSCF are:
     Max number of different atomic species (ntypx) = 10
     Max number of k-points (npk) =  40000
     Max angular momentum in pseudopotentials (lmaxx) =  3
               file Al.pbe-nl-kjpaw_psl.1.0.0.UPF: wavefunction(s)  3S 3P renormalized

     Subspace diagonalization in iterative solution of the eigenvalue problem:
     a serial algorithm will be used


     G-vector sticks info
     --------------------
     sticks:   dense  smooth     PW     G-vecs:    dense   smooth      PW
     Sum         341     341    113                 4697     4697     925



     bravais-lattice index     =            0
     lattice parameter (alat)  =       4.0400  a.u.
     unit-cell volume          =      65.9393 (a.u.)^3
     number of atoms/cell      =            2
     number of atomic types    =            1
     number of electrons       =         6.00
     number of Kohn-Sham states=            7
     kinetic-energy cutoff     =      70.0000  Ry
     charge density cutoff     =     260.0000  Ry
     convergence threshold     =      1.0E-06
     mixing beta               =       0.1000
     number of iterations used =           10  TF        mixing
     Exchange-correlation      = SLA PW PBX PBC ( 1  4  3  4 0 0)

     celldm(1)=   4.040000  celldm(2)=   0.000000  celldm(3)=   0.000000
     celldm(4)=   0.000000  celldm(5)=   0.000000  celldm(6)=   0.000000

     crystal axes: (cart. coord. in units of alat)
               a(1) = (   1.000000   0.000000   0.000000 )  
               a(2) = (   0.000000   1.000000   0.000000 )  
               a(3) = (   0.000000   0.000000   1.000000 )  

     reciprocal axes: (cart. coord. in units 2 pi/alat)
               b(1) = (  1.000000  0.000000  0.000000 )  
               b(2) = (  0.000000  1.000000  0.000000 )  
               b(3) = (  0.000000  0.000000  1.000000 )  


     PseudoPot. # 1 for Al read from file:
     /opt/pp/Al.pbe-nl-kjpaw_psl.1.0.0.UPF
     MD5 check sum: 1b67f78b73fe58c7924490f171ce8a1e
     Pseudo is Projector augmented-wave + core cor, Zval =  3.0
     Generated using "atomic" code by A. Dal Corso v.6.3
     Shape of augmentation charge: PSQ
     Using radial grid of 1135 points,  4 beta functions with: 
                l(1) =   0
                l(2) =   0
                l(3) =   1
                l(4) =   1
     Q(r) pseudized with 0 coefficients 


     atomic species   valence    mass     pseudopotential
        Al             3.00    26.98200     Al( 1.00)

     No symmetry found



   Cartesian axes

     site n.     atom                  positions (alat units)
         1           Al  tau(   1) = (  -0.0001235   0.0000359   0.0002572  )
         2           Al  tau(   2) = (   0.5003009   0.4992819   0.5002658  )

     number of k points=    32  Marzari-Vanderbilt smearing, width (Ry)=  0.0200
                       cart. coord. in units 2pi/alat
        k(    1) = (   0.1250000   0.1250000   0.1250000), wk =   0.0625000
        k(    2) = (   0.1250000   0.1250000   0.3750000), wk =   0.0625000
        k(    3) = (   0.1250000   0.3750000   0.3750000), wk =   0.0625000
        k(    4) = (   0.3750000   0.3750000   0.3750000), wk =   0.0625000
        k(    5) = (  -0.1250000  -0.1250000   0.1250000), wk =   0.0625000
        k(    6) = (  -0.1250000   0.1250000  -0.1250000), wk =   0.0625000
        k(    7) = (   0.1250000  -0.1250000  -0.1250000), wk =   0.0625000
        k(    8) = (  -0.1250000  -0.1250000   0.3750000), wk =   0.0625000
        k(    9) = (  -0.1250000   0.1250000  -0.3750000), wk =   0.0625000
        k(   10) = (   0.1250000  -0.1250000  -0.3750000), wk =   0.0625000
        k(   11) = (   0.3750000  -0.1250000   0.1250000), wk =   0.0625000
        k(   12) = (  -0.3750000  -0.1250000  -0.1250000), wk =   0.0625000
        k(   13) = (   0.3750000   0.1250000  -0.1250000), wk =   0.0625000
        k(   14) = (  -0.3750000   0.1250000   0.1250000), wk =   0.0625000
        k(   15) = (  -0.1250000   0.3750000   0.1250000), wk =   0.0625000
        k(   16) = (  -0.1250000  -0.3750000  -0.1250000), wk =   0.0625000
        k(   17) = (   0.1250000   0.3750000  -0.1250000), wk =   0.0625000
        k(   18) = (   0.1250000  -0.3750000   0.1250000), wk =   0.0625000
        k(   19) = (  -0.1250000  -0.3750000   0.3750000), wk =   0.0625000
        k(   20) = (  -0.1250000   0.3750000  -0.3750000), wk =   0.0625000
        k(   21) = (   0.1250000  -0.3750000  -0.3750000), wk =   0.0625000
        k(   22) = (   0.3750000   0.1250000  -0.3750000), wk =   0.0625000
        k(   23) = (  -0.3750000  -0.1250000  -0.3750000), wk =   0.0625000
        k(   24) = (   0.3750000  -0.1250000   0.3750000), wk =   0.0625000
        k(   25) = (  -0.3750000   0.1250000   0.3750000), wk =   0.0625000
        k(   26) = (   0.3750000  -0.3750000   0.1250000), wk =   0.0625000
        k(   27) = (  -0.3750000  -0.3750000  -0.1250000), wk =   0.0625000
        k(   28) = (   0.3750000   0.3750000  -0.1250000), wk =   0.0625000
        k(   29) = (  -0.3750000   0.3750000   0.1250000), wk =   0.0625000
        k(   30) = (  -0.3750000  -0.3750000   0.3750000), wk =   0.0625000
        k(   31) = (  -0.3750000   0.3750000  -0.3750000), wk =   0.0625000
        k(   32) = (   0.3750000  -0.3750000  -0.3750000), wk =   0.0625000

     Dense  grid:     4697 G-vectors     FFT dimensions: (  24,  24,  24)

     Estimated max dynamical RAM per process >       9.47 MB

     Initial potential from superposition of free atoms

     starting charge    5.99542, renormalised to    6.00000
     Starting wfcs are    8 randomized atomic wfcs
     Checking if some PAW data can be deallocated... 

     total cpu time spent up to now is        1.0 secs

     Self-consistent Calculation

     iteration #  1     ecut=    70.00 Ry     beta= 0.10
     Davidson diagonalization with overlap
     ethr =  1.00E-02,  avg # of iterations =  4.2

     Threshold (ethr) on eigenvalues was too large:
     Diagonalizing with lowered threshold

     Davidson diagonalization with overlap
     ethr =  5.98E-04,  avg # of iterations =  1.0

     total cpu time spent up to now is        2.2 secs

     total energy              =     -76.87954620 Ry
     Harris-Foulkes estimate   =     -76.89117002 Ry
     estimated scf accuracy    <       0.03588586 Ry

     iteration #  2     ecut=    70.00 Ry     beta= 0.10
     Davidson diagonalization with overlap
     ethr =  5.98E-04,  avg # of iterations =  1.0

     total cpu time spent up to now is        2.7 secs

     total energy              =     -76.84888105 Ry
     Harris-Foulkes estimate   =     -76.87959233 Ry
     estimated scf accuracy    <       0.03070957 Ry

     iteration #  3     ecut=    70.00 Ry     beta= 0.10
     Davidson diagonalization with overlap
     ethr =  5.12E-04,  avg # of iterations =  1.9

     total cpu time spent up to now is        3.2 secs

     total energy              =     -76.85020915 Ry
     Harris-Foulkes estimate   =     -76.85188953 Ry
     estimated scf accuracy    <       0.00012854 Ry

     iteration #  4     ecut=    70.00 Ry     beta= 0.10
     Davidson diagonalization with overlap
     ethr =  2.14E-06,  avg # of iterations =  5.2

     total cpu time spent up to now is        4.0 secs

     total energy              =     -76.84837239 Ry
     Harris-Foulkes estimate   =     -76.85034968 Ry
     estimated scf accuracy    <       0.00008585 Ry

     iteration #  5     ecut=    70.00 Ry     beta= 0.10
     Davidson diagonalization with overlap
     ethr =  1.43E-06,  avg # of iterations =  2.2

     total cpu time spent up to now is        4.6 secs

     total energy              =     -76.84841132 Ry
     Harris-Foulkes estimate   =     -76.84841467 Ry
     estimated scf accuracy    <       0.00000299 Ry

     iteration #  6     ecut=    70.00 Ry     beta= 0.10
     Davidson diagonalization with overlap
     ethr =  4.98E-08,  avg # of iterations =  3.0

     total cpu time spent up to now is        5.2 secs

     End of self-consistent calculation

          k = 0.1250 0.1250 0.1250 (   666 PWs)   bands (ev):

     8.6278  25.4944  25.4944  34.8439  40.9211  40.9212  44.6721

          k = 0.1250 0.1250 0.3750 (   655 PWs)   bands (ev):

    12.3702  18.8180  28.7888  35.2802  35.8337  39.8857  43.3092

          k = 0.1250 0.3750 0.3750 (   646 PWs)   bands (ev):

    15.8085  20.9375  23.3186  28.1874  35.7275  37.8067  49.3826

          k = 0.3750 0.3750 0.3750 (   657 PWs)   bands (ev):

    18.9093  23.5356  23.5357  29.1293  29.1448  29.1464  46.3145

          k =-0.1250-0.1250 0.1250 (   666 PWs)   bands (ev):

     8.6278  25.4944  25.4944  34.8439  40.9212  40.9212  44.6721

          k =-0.1250 0.1250-0.1250 (   666 PWs)   bands (ev):

     8.6278  25.4944  25.4944  34.8439  40.9211  40.9212  44.6721

          k = 0.1250-0.1250-0.1250 (   666 PWs)   bands (ev):

     8.6278  25.4944  25.4944  34.8440  40.9211  40.9211  44.6721

          k =-0.1250-0.1250 0.3750 (   655 PWs)   bands (ev):

    12.3702  18.8180  28.7888  35.2802  35.8337  39.8857  43.3092

          k =-0.1250 0.1250-0.3750 (   655 PWs)   bands (ev):

    12.3702  18.8180  28.7888  35.2805  35.8334  39.8857  43.3092

          k = 0.1250-0.1250-0.3750 (   655 PWs)   bands (ev):

    12.3702  18.8180  28.7888  35.2805  35.8334  39.8857  43.3092

          k = 0.3750-0.1250 0.1250 (   655 PWs)   bands (ev):

    12.3702  18.8180  28.7888  35.2804  35.8335  39.8857  43.3093

          k =-0.3750-0.1250-0.1250 (   655 PWs)   bands (ev):

    12.3702  18.8180  28.7888  35.2804  35.8335  39.8857  43.3092

          k = 0.3750 0.1250-0.1250 (   655 PWs)   bands (ev):

    12.3702  18.8180  28.7888  35.2804  35.8335  39.8857  43.3092

          k =-0.3750 0.1250 0.1250 (   655 PWs)   bands (ev):

    12.3702  18.8180  28.7888  35.2804  35.8335  39.8857  43.3092

          k =-0.1250 0.3750 0.1250 (   655 PWs)   bands (ev):

    12.3702  18.8180  28.7888  35.2805  35.8334  39.8857  43.3092

          k =-0.1250-0.3750-0.1250 (   655 PWs)   bands (ev):

    12.3702  18.8180  28.7888  35.2805  35.8334  39.8857  43.3092

          k = 0.1250 0.3750-0.1250 (   655 PWs)   bands (ev):

    12.3702  18.8180  28.7888  35.2805  35.8334  39.8857  43.3092

          k = 0.1250-0.3750 0.1250 (   655 PWs)   bands (ev):

    12.3702  18.8180  28.7888  35.2805  35.8334  39.8857  43.3092

          k =-0.1250-0.3750 0.3750 (   646 PWs)   bands (ev):

    15.8085  20.9375  23.3185  28.1874  35.7275  37.8067  49.3826

          k =-0.1250 0.3750-0.3750 (   646 PWs)   bands (ev):

    15.8085  20.9375  23.3185  28.1874  35.7275  37.8067  49.3826

          k = 0.1250-0.3750-0.3750 (   646 PWs)   bands (ev):

    15.8085  20.9375  23.3186  28.1874  35.7275  37.8067  49.3826

          k = 0.3750 0.1250-0.3750 (   646 PWs)   bands (ev):

    15.8085  20.9375  23.3186  28.1874  35.7275  37.8067  49.3826

          k =-0.3750-0.1250-0.3750 (   646 PWs)   bands (ev):

    15.8085  20.9375  23.3186  28.1874  35.7275  37.8067  49.3825

          k = 0.3750-0.1250 0.3750 (   646 PWs)   bands (ev):

    15.8085  20.9375  23.3186  28.1874  35.7275  37.8067  49.3826

          k =-0.3750 0.1250 0.3750 (   646 PWs)   bands (ev):

    15.8085  20.9375  23.3186  28.1874  35.7275  37.8067  49.3826

          k = 0.3750-0.3750 0.1250 (   646 PWs)   bands (ev):

    15.8085  20.9375  23.3185  28.1874  35.7275  37.8067  49.3826

          k =-0.3750-0.3750-0.1250 (   646 PWs)   bands (ev):

    15.8085  20.9375  23.3185  28.1874  35.7275  37.8067  49.3826

          k = 0.3750 0.3750-0.1250 (   646 PWs)   bands (ev):

    15.8085  20.9375  23.3185  28.1874  35.7275  37.8067  49.3826

          k =-0.3750 0.3750 0.1250 (   646 PWs)   bands (ev):

    15.8085  20.9375  23.3185  28.1874  35.7275  37.8067  49.3826

          k =-0.3750-0.3750 0.3750 (   657 PWs)   bands (ev):

    18.9093  23.5356  23.5357  29.1293  29.1448  29.1464  46.3145

          k =-0.3750 0.3750-0.3750 (   657 PWs)   bands (ev):

    18.9093  23.5356  23.5357  29.1301  29.1448  29.1455  46.3145

          k = 0.3750-0.3750-0.3750 (   657 PWs)   bands (ev):

    18.9093  23.5356  23.5356  29.1301  29.1448  29.1455  46.3145

     the Fermi energy is    28.4317 ev

!    total energy              =     -76.84839395 Ry
     Harris-Foulkes estimate   =     -76.84841407 Ry
     estimated scf accuracy    <       0.00000065 Ry

     total all-electron energy =      -969.133955 Ry

     The total energy is the sum of the following terms:

     one-electron contribution =      16.33622468 Ry
     hartree contribution      =       0.09270052 Ry
     xc contribution           =      -7.03878245 Ry
     ewald contribution        =     -16.21439947 Ry
     one-center paw contrib.   =     -70.02503364 Ry
     smearing contrib. (-TS)   =       0.00089641 Ry

     convergence has been achieved in   6 iterations

     Forces acting on atoms (cartesian axes, Ry/au):

     atom    1 type  1   force =     0.00251437   -0.00452066    0.00006105
     atom    2 type  1   force =    -0.00251437    0.00452066   -0.00006105

     Total force =     0.007316     Total SCF correction =     0.000194


     Computing stress (Cartesian axis) and pressure

          total   stress  (Ry/bohr**3)                   (kbar)     P=10848.34
   0.07374554  -0.00000022   0.00000001      10848.34     -0.03      0.00
  -0.00000022   0.07374527  -0.00000001         -0.03  10848.30     -0.00
   0.00000001  -0.00000001   0.07374568          0.00     -0.00  10848.36


     Writing output data file fe_scf_fcc_2.save/

     init_run     :      0.60s CPU      0.61s WALL (       1 calls)
     electrons    :      4.09s CPU      4.12s WALL (       1 calls)
     forces       :      0.05s CPU      0.05s WALL (       1 calls)
     stress       :      0.16s CPU      0.16s WALL (       1 calls)

     Called by init_run:
     wfcinit      :      0.18s CPU      0.18s WALL (       1 calls)
     potinit      :      0.14s CPU      0.14s WALL (       1 calls)
     hinit0       :      0.27s CPU      0.27s WALL (       1 calls)

     Called by electrons:
     c_bands      :      2.77s CPU      2.79s WALL (       7 calls)
     sum_band     :      0.50s CPU      0.51s WALL (       7 calls)
     v_of_rho     :      0.08s CPU      0.09s WALL (       7 calls)
     newd         :      0.04s CPU      0.04s WALL (       7 calls)
     PAW_pot      :      0.83s CPU      0.84s WALL (       7 calls)
     mix_rho      :      0.00s CPU      0.01s WALL (       7 calls)

     Called by c_bands:
     init_us_2    :      0.09s CPU      0.10s WALL (     544 calls)
     cegterg      :      2.65s CPU      2.69s WALL (     224 calls)

     Called by sum_band:
     sum_band:bec :      0.00s CPU      0.00s WALL (     224 calls)
     addusdens    :      0.03s CPU      0.03s WALL (       7 calls)

     Called by *egterg:
     h_psi        :      2.45s CPU      2.50s WALL (     849 calls)
     s_psi        :      0.05s CPU      0.05s WALL (     849 calls)
     g_psi        :      0.00s CPU      0.01s WALL (     593 calls)
     cdiaghg      :      0.09s CPU      0.10s WALL (     785 calls)

     Called by h_psi:
     h_psi:pot    :      2.43s CPU      2.49s WALL (     849 calls)
     h_psi:calbec :      0.05s CPU      0.05s WALL (     849 calls)
     vloc_psi     :      2.32s CPU      2.39s WALL (     849 calls)
     add_vuspsi   :      0.05s CPU      0.05s WALL (     849 calls)

     General routines
     calbec       :      0.06s CPU      0.07s WALL (    1233 calls)
     fft          :      0.07s CPU      0.07s WALL (     104 calls)
     ffts         :      0.00s CPU      0.00s WALL (       7 calls)
     fftw         :      2.52s CPU      2.60s WALL (   10614 calls)

     Parallel routines

     PWSCF        :     5.34s CPU         5.39s WALL


   This run was terminated on:   0:19:58  30Oct2019            

=------------------------------------------------------------------------------=
   JOB DONE.
=------------------------------------------------------------------------------=
