
     Program PWSCF v.6.3 starts on 31Oct2019 at 23:39:18 

     This program is part of the open-source Quantum ESPRESSO suite
     for quantum simulation of materials; please cite
         "P. Giannozzi et al., J. Phys.:Condens. Matter 21 395502 (2009);
         "P. Giannozzi et al., J. Phys.:Condens. Matter 29 465901 (2017);
          URL http://www.quantum-espresso.org", 
     in publications or presentations arising from this work. More details at
     http://www.quantum-espresso.org/quote

     Parallel version (MPI), running on     1 processors

     MPI processes distributed on     1 nodes
     Reading input from /cloud/Code/python/py_pwscf_converge/src/example2/wd/runpwscf/file_10211.in
Warning: card &IONS ignored
Warning: card ION_DYNAMICS = 'BFGS', ignored
Warning: card / ignored
Warning: card &CELL ignored
Warning: card CELL_DYNAMICS = 'BFGS', ignored
Warning: card CELL_FACTOR = 2.0, ignored
Warning: card PRESS = 0.0, ignored
Warning: card / ignored

     Current dimensions of program PWSCF are:
     Max number of different atomic species (ntypx) = 10
     Max number of k-points (npk) =  40000
     Max angular momentum in pseudopotentials (lmaxx) =  3
               file Al.pbe-nl-kjpaw_psl.1.0.0.UPF: wavefunction(s)  3S 3P renormalized

     Subspace diagonalization in iterative solution of the eigenvalue problem:
     a serial algorithm will be used


     G-vector sticks info
     --------------------
     sticks:   dense  smooth     PW     G-vecs:    dense   smooth      PW
     Sum        1389    1389    509                39127    39127    8733



     bravais-lattice index     =            0
     lattice parameter (alat)  =       7.6356  a.u.
     unit-cell volume          =     445.1737 (a.u.)^3
     number of atoms/cell      =            2
     number of atomic types    =            1
     number of electrons       =         6.00
     number of Kohn-Sham states=            7
     kinetic-energy cutoff     =     100.0000  Ry
     charge density cutoff     =     300.0000  Ry
     convergence threshold     =      1.0E-06
     mixing beta               =       0.1000
     number of iterations used =           10  TF        mixing
     Exchange-correlation      = SLA PW PBX PBC ( 1  4  3  4 0 0)

     celldm(1)=   7.635600  celldm(2)=   0.000000  celldm(3)=   0.000000
     celldm(4)=   0.000000  celldm(5)=   0.000000  celldm(6)=   0.000000

     crystal axes: (cart. coord. in units of alat)
               a(1) = (   1.000000   0.000000   0.000000 )  
               a(2) = (   0.000000   1.000000   0.000000 )  
               a(3) = (   0.000000   0.000000   1.000000 )  

     reciprocal axes: (cart. coord. in units 2 pi/alat)
               b(1) = (  1.000000  0.000000  0.000000 )  
               b(2) = (  0.000000  1.000000  0.000000 )  
               b(3) = (  0.000000  0.000000  1.000000 )  


     PseudoPot. # 1 for Al read from file:
     /opt/pp/Al.pbe-nl-kjpaw_psl.1.0.0.UPF
     MD5 check sum: 1b67f78b73fe58c7924490f171ce8a1e
     Pseudo is Projector augmented-wave + core cor, Zval =  3.0
     Generated using "atomic" code by A. Dal Corso v.6.3
     Shape of augmentation charge: PSQ
     Using radial grid of 1135 points,  4 beta functions with: 
                l(1) =   0
                l(2) =   0
                l(3) =   1
                l(4) =   1
     Q(r) pseudized with 0 coefficients 


     atomic species   valence    mass     pseudopotential
        Al             3.00    26.98200     Al( 1.00)

     No symmetry found



   Cartesian axes

     site n.     atom                  positions (alat units)
         1           Al  tau(   1) = (  -0.0000654   0.0000190   0.0001361  )
         2           Al  tau(   2) = (   0.5001592   0.4996200   0.5001406  )

     number of k points=    32  Marzari-Vanderbilt smearing, width (Ry)=  0.0200
                       cart. coord. in units 2pi/alat
        k(    1) = (   0.1250000   0.1250000   0.1250000), wk =   0.0625000
        k(    2) = (   0.1250000   0.1250000   0.3750000), wk =   0.0625000
        k(    3) = (   0.1250000   0.3750000   0.3750000), wk =   0.0625000
        k(    4) = (   0.3750000   0.3750000   0.3750000), wk =   0.0625000
        k(    5) = (  -0.1250000  -0.1250000   0.1250000), wk =   0.0625000
        k(    6) = (  -0.1250000   0.1250000  -0.1250000), wk =   0.0625000
        k(    7) = (   0.1250000  -0.1250000  -0.1250000), wk =   0.0625000
        k(    8) = (  -0.1250000  -0.1250000   0.3750000), wk =   0.0625000
        k(    9) = (  -0.1250000   0.1250000  -0.3750000), wk =   0.0625000
        k(   10) = (   0.1250000  -0.1250000  -0.3750000), wk =   0.0625000
        k(   11) = (   0.3750000  -0.1250000   0.1250000), wk =   0.0625000
        k(   12) = (  -0.3750000  -0.1250000  -0.1250000), wk =   0.0625000
        k(   13) = (   0.3750000   0.1250000  -0.1250000), wk =   0.0625000
        k(   14) = (  -0.3750000   0.1250000   0.1250000), wk =   0.0625000
        k(   15) = (  -0.1250000   0.3750000   0.1250000), wk =   0.0625000
        k(   16) = (  -0.1250000  -0.3750000  -0.1250000), wk =   0.0625000
        k(   17) = (   0.1250000   0.3750000  -0.1250000), wk =   0.0625000
        k(   18) = (   0.1250000  -0.3750000   0.1250000), wk =   0.0625000
        k(   19) = (  -0.1250000  -0.3750000   0.3750000), wk =   0.0625000
        k(   20) = (  -0.1250000   0.3750000  -0.3750000), wk =   0.0625000
        k(   21) = (   0.1250000  -0.3750000  -0.3750000), wk =   0.0625000
        k(   22) = (   0.3750000   0.1250000  -0.3750000), wk =   0.0625000
        k(   23) = (  -0.3750000  -0.1250000  -0.3750000), wk =   0.0625000
        k(   24) = (   0.3750000  -0.1250000   0.3750000), wk =   0.0625000
        k(   25) = (  -0.3750000   0.1250000   0.3750000), wk =   0.0625000
        k(   26) = (   0.3750000  -0.3750000   0.1250000), wk =   0.0625000
        k(   27) = (  -0.3750000  -0.3750000  -0.1250000), wk =   0.0625000
        k(   28) = (   0.3750000   0.3750000  -0.1250000), wk =   0.0625000
        k(   29) = (  -0.3750000   0.3750000   0.1250000), wk =   0.0625000
        k(   30) = (  -0.3750000  -0.3750000   0.3750000), wk =   0.0625000
        k(   31) = (  -0.3750000   0.3750000  -0.3750000), wk =   0.0625000
        k(   32) = (   0.3750000  -0.3750000  -0.3750000), wk =   0.0625000

     Dense  grid:    39127 G-vectors     FFT dimensions: (  45,  45,  45)

     Estimated max dynamical RAM per process >      83.58 MB

     Initial potential from superposition of free atoms

     starting charge    5.99542, renormalised to    6.00000
     Starting wfcs are    8 randomized atomic wfcs
     Checking if some PAW data can be deallocated... 

     total cpu time spent up to now is        6.2 secs

     Self-consistent Calculation

     iteration #  1     ecut=   100.00 Ry     beta= 0.10
     Davidson diagonalization with overlap
     ethr =  1.00E-02,  avg # of iterations =  3.1

     Threshold (ethr) on eigenvalues was too large:
     Diagonalizing with lowered threshold

     Davidson diagonalization with overlap
     ethr =  1.39E-04,  avg # of iterations =  2.8

     total cpu time spent up to now is       21.2 secs

     total energy              =     -78.84838853 Ry
     Harris-Foulkes estimate   =     -78.84868203 Ry
     estimated scf accuracy    <       0.00801238 Ry

     iteration #  2     ecut=   100.00 Ry     beta= 0.10
     Davidson diagonalization with overlap
     ethr =  1.34E-04,  avg # of iterations =  1.0

     total cpu time spent up to now is       24.5 secs

     total energy              =     -78.84621092 Ry
     Harris-Foulkes estimate   =     -78.84842370 Ry
     estimated scf accuracy    <       0.00702050 Ry

     iteration #  3     ecut=   100.00 Ry     beta= 0.10
     Davidson diagonalization with overlap
     ethr =  1.17E-04,  avg # of iterations =  1.0

     total cpu time spent up to now is       27.9 secs

     total energy              =     -78.84651313 Ry
     Harris-Foulkes estimate   =     -78.84660603 Ry
     estimated scf accuracy    <       0.00004487 Ry

     iteration #  4     ecut=   100.00 Ry     beta= 0.10
     Davidson diagonalization with overlap
     ethr =  7.48E-07,  avg # of iterations =  3.6

     total cpu time spent up to now is       33.5 secs

     total energy              =     -78.84650384 Ry
     Harris-Foulkes estimate   =     -78.84655849 Ry
     estimated scf accuracy    <       0.00001958 Ry

     iteration #  5     ecut=   100.00 Ry     beta= 0.10
     Davidson diagonalization with overlap
     ethr =  3.26E-07,  avg # of iterations =  2.0

     total cpu time spent up to now is       37.4 secs

     total energy              =     -78.84649494 Ry
     Harris-Foulkes estimate   =     -78.84650658 Ry
     estimated scf accuracy    <       0.00003138 Ry

     iteration #  6     ecut=   100.00 Ry     beta= 0.10
     Davidson diagonalization with overlap
     ethr =  3.26E-07,  avg # of iterations =  2.0

     total cpu time spent up to now is       48.6 secs

     total energy              =     -78.84649604 Ry
     Harris-Foulkes estimate   =     -78.84649769 Ry
     estimated scf accuracy    <       0.00000111 Ry

     iteration #  7     ecut=   100.00 Ry     beta= 0.10
     Davidson diagonalization with overlap
     ethr =  1.86E-08,  avg # of iterations =  1.3

     total cpu time spent up to now is       53.8 secs

     End of self-consistent calculation

          k = 0.1250 0.1250 0.1250 (  7487 PWs)   bands (ev):

    -4.4256   1.0099   2.7006   2.7006   5.4532   7.3963   7.7330

          k = 0.1250 0.1250 0.3750 (  7532 PWs)   bands (ev):

    -3.3351  -1.2265   2.9068   3.7499   4.8826   5.8008   6.8315

          k = 0.1250 0.3750 0.3750 (  7513 PWs)   bands (ev):

    -2.2808  -0.7137   0.7114   2.2456   4.4302   5.9918   7.0166

          k = 0.3750 0.3750 0.3750 (  7526 PWs)   bands (ev):

    -1.2690  -0.1193   1.7872   1.7872   2.5353   3.9196   3.9196

          k =-0.1250-0.1250 0.1250 (  7487 PWs)   bands (ev):

    -4.4256   1.0099   2.7006   2.7006   5.4532   7.3964   7.7330

          k =-0.1250 0.1250-0.1250 (  7487 PWs)   bands (ev):

    -4.4256   1.0099   2.7006   2.7006   5.4532   7.3965   7.7330

          k = 0.1250-0.1250-0.1250 (  7487 PWs)   bands (ev):

    -4.4256   1.0099   2.7006   2.7006   5.4532   7.3964   7.7330

          k =-0.1250-0.1250 0.3750 (  7532 PWs)   bands (ev):

    -3.3351  -1.2265   2.9068   3.7499   4.8826   5.8008   6.8315

          k =-0.1250 0.1250-0.3750 (  7532 PWs)   bands (ev):

    -3.3351  -1.2265   2.9068   3.7499   4.8826   5.8008   6.8315

          k = 0.1250-0.1250-0.3750 (  7532 PWs)   bands (ev):

    -3.3351  -1.2265   2.9068   3.7499   4.8826   5.8008   6.8315

          k = 0.3750-0.1250 0.1250 (  7532 PWs)   bands (ev):

    -3.3351  -1.2265   2.9068   3.7499   4.8826   5.8008   6.8315

          k =-0.3750-0.1250-0.1250 (  7532 PWs)   bands (ev):

    -3.3351  -1.2265   2.9068   3.7499   4.8826   5.8008   6.8315

          k = 0.3750 0.1250-0.1250 (  7532 PWs)   bands (ev):

    -3.3351  -1.2265   2.9068   3.7499   4.8826   5.8008   6.8315

          k =-0.3750 0.1250 0.1250 (  7532 PWs)   bands (ev):

    -3.3351  -1.2265   2.9068   3.7499   4.8826   5.8008   6.8315

          k =-0.1250 0.3750 0.1250 (  7532 PWs)   bands (ev):

    -3.3351  -1.2265   2.9068   3.7499   4.8826   5.8008   6.8315

          k =-0.1250-0.3750-0.1250 (  7532 PWs)   bands (ev):

    -3.3351  -1.2265   2.9068   3.7499   4.8826   5.8008   6.8315

          k = 0.1250 0.3750-0.1250 (  7532 PWs)   bands (ev):

    -3.3351  -1.2265   2.9068   3.7499   4.8826   5.8008   6.8315

          k = 0.1250-0.3750 0.1250 (  7532 PWs)   bands (ev):

    -3.3351  -1.2265   2.9068   3.7499   4.8826   5.8008   6.8315

          k =-0.1250-0.3750 0.3750 (  7513 PWs)   bands (ev):

    -2.2808  -0.7137   0.7114   2.2456   4.4302   5.9918   7.0166

          k =-0.1250 0.3750-0.3750 (  7513 PWs)   bands (ev):

    -2.2808  -0.7137   0.7114   2.2456   4.4302   5.9918   7.0166

          k = 0.1250-0.3750-0.3750 (  7513 PWs)   bands (ev):

    -2.2808  -0.7137   0.7114   2.2456   4.4302   5.9918   7.0166

          k = 0.3750 0.1250-0.3750 (  7513 PWs)   bands (ev):

    -2.2808  -0.7137   0.7114   2.2456   4.4302   5.9918   7.0166

          k =-0.3750-0.1250-0.3750 (  7513 PWs)   bands (ev):

    -2.2808  -0.7137   0.7114   2.2456   4.4302   5.9918   7.0166

          k = 0.3750-0.1250 0.3750 (  7513 PWs)   bands (ev):

    -2.2808  -0.7137   0.7114   2.2456   4.4302   5.9918   7.0166

          k =-0.3750 0.1250 0.3750 (  7513 PWs)   bands (ev):

    -2.2808  -0.7137   0.7114   2.2456   4.4302   5.9918   7.0166

          k = 0.3750-0.3750 0.1250 (  7513 PWs)   bands (ev):

    -2.2808  -0.7137   0.7114   2.2456   4.4302   5.9918   7.0166

          k =-0.3750-0.3750-0.1250 (  7513 PWs)   bands (ev):

    -2.2808  -0.7137   0.7114   2.2456   4.4302   5.9918   7.0166

          k = 0.3750 0.3750-0.1250 (  7513 PWs)   bands (ev):

    -2.2808  -0.7137   0.7114   2.2456   4.4302   5.9918   7.0166

          k =-0.3750 0.3750 0.1250 (  7513 PWs)   bands (ev):

    -2.2808  -0.7137   0.7114   2.2456   4.4302   5.9918   7.0166

          k =-0.3750-0.3750 0.3750 (  7526 PWs)   bands (ev):

    -1.2690  -0.1192   1.7872   1.7872   2.5353   3.9196   3.9196

          k =-0.3750 0.3750-0.3750 (  7526 PWs)   bands (ev):

    -1.2690  -0.1192   1.7872   1.7872   2.5353   3.9196   3.9196

          k = 0.3750-0.3750-0.3750 (  7526 PWs)   bands (ev):

    -1.2690  -0.1192   1.7872   1.7872   2.5353   3.9196   3.9196

     the Fermi energy is     2.4390 ev

!    total energy              =     -78.84649547 Ry
     Harris-Foulkes estimate   =     -78.84649612 Ry
     estimated scf accuracy    <       0.00000011 Ry

     total all-electron energy =      -971.132057 Ry

     The total energy is the sum of the following terms:

     one-electron contribution =       3.57738581 Ry
     hartree contribution      =       0.10229776 Ry
     xc contribution           =      -4.62869304 Ry
     ewald contribution        =      -8.57905000 Ry
     one-center paw contrib.   =     -69.31770839 Ry
     smearing contrib. (-TS)   =      -0.00072761 Ry

     convergence has been achieved in   7 iterations

     Forces acting on atoms (cartesian axes, Ry/au):

     atom    1 type  1   force =     0.00001495   -0.00001132    0.00000312
     atom    2 type  1   force =    -0.00001495    0.00001132   -0.00000312

     Total force =     0.000027     Total SCF correction =     0.000073
     SCF correction compared to forces is large: reduce conv_thr to get better values


     Computing stress (Cartesian axis) and pressure

          total   stress  (Ry/bohr**3)                   (kbar)     P=  -93.02
  -0.00063231  -0.00000000  -0.00000001        -93.02     -0.00     -0.00
  -0.00000000  -0.00063231  -0.00000003         -0.00    -93.02     -0.00
  -0.00000001  -0.00000003  -0.00063231         -0.00     -0.00    -93.02


     Writing output data file fe_scf_fcc_2.save/

     init_run     :      5.48s CPU      5.71s WALL (       1 calls)
     electrons    :     47.10s CPU     47.61s WALL (       1 calls)
     forces       :      0.42s CPU      0.43s WALL (       1 calls)
     stress       :      1.80s CPU      1.80s WALL (       1 calls)

     Called by init_run:
     wfcinit      :      4.72s CPU      4.81s WALL (       1 calls)
     potinit      :      0.21s CPU      0.22s WALL (       1 calls)
     hinit0       :      0.49s CPU      0.49s WALL (       1 calls)

     Called by electrons:
     c_bands      :     38.25s CPU     38.69s WALL (       8 calls)
     sum_band     :      6.55s CPU      6.60s WALL (       8 calls)
     v_of_rho     :      0.78s CPU      0.79s WALL (       8 calls)
     newd         :      0.42s CPU      0.56s WALL (       8 calls)
     PAW_pot      :      1.22s CPU      1.23s WALL (       8 calls)
     mix_rho      :      0.09s CPU      0.09s WALL (       8 calls)

     Called by c_bands:
     init_us_2    :      1.93s CPU      1.90s WALL (     608 calls)
     cegterg      :     36.25s CPU     36.63s WALL (     256 calls)

     Called by sum_band:
     sum_band:bec :      0.00s CPU      0.00s WALL (     256 calls)
     addusdens    :      0.35s CPU      0.36s WALL (       8 calls)

     Called by *egterg:
     h_psi        :     35.16s CPU     35.54s WALL (     829 calls)
     s_psi        :      1.07s CPU      1.07s WALL (     829 calls)
     g_psi        :      0.22s CPU      0.22s WALL (     541 calls)
     cdiaghg      :      0.19s CPU      0.18s WALL (     765 calls)

     Called by h_psi:
     h_psi:pot    :     35.05s CPU     35.37s WALL (     829 calls)
     h_psi:calbec :      1.05s CPU      1.02s WALL (     829 calls)
     vloc_psi     :     32.80s CPU     33.13s WALL (     829 calls)
     add_vuspsi   :      1.18s CPU      1.21s WALL (     829 calls)

     General routines
     calbec       :      1.46s CPU      1.43s WALL (    1245 calls)
     fft          :      0.33s CPU      0.37s WALL (     115 calls)
     ffts         :      0.03s CPU      0.03s WALL (       8 calls)
     fftw         :     34.40s CPU     34.63s WALL (   11222 calls)

     Parallel routines

     PWSCF        :    55.27s CPU        56.08s WALL


   This run was terminated on:  23:40:14  31Oct2019            

=------------------------------------------------------------------------------=
   JOB DONE.
=------------------------------------------------------------------------------=
