
     Program PWSCF v.6.3 starts on 30Oct2019 at  0:19:20 

     This program is part of the open-source Quantum ESPRESSO suite
     for quantum simulation of materials; please cite
         "P. Giannozzi et al., J. Phys.:Condens. Matter 21 395502 (2009);
         "P. Giannozzi et al., J. Phys.:Condens. Matter 29 465901 (2017);
          URL http://www.quantum-espresso.org", 
     in publications or presentations arising from this work. More details at
     http://www.quantum-espresso.org/quote

     Parallel version (MPI), running on     1 processors

     MPI processes distributed on     1 nodes
     Reading input from /cloud/Code/python/py_pwscf_converge/src/example2/wd/runpwscf/file_10009.in
Warning: card &IONS ignored
Warning: card ION_DYNAMICS = 'BFGS', ignored
Warning: card / ignored
Warning: card &CELL ignored
Warning: card CELL_DYNAMICS = 'BFGS', ignored
Warning: card CELL_FACTOR = 2.0, ignored
Warning: card PRESS = 0.0, ignored
Warning: card / ignored

     Current dimensions of program PWSCF are:
     Max number of different atomic species (ntypx) = 10
     Max number of k-points (npk) =  40000
     Max angular momentum in pseudopotentials (lmaxx) =  3
               file Al.pbe-nl-kjpaw_psl.1.0.0.UPF: wavefunction(s)  3S 3P renormalized

     Subspace diagonalization in iterative solution of the eigenvalue problem:
     a serial algorithm will be used


     G-vector sticks info
     --------------------
     sticks:   dense  smooth     PW     G-vecs:    dense   smooth      PW
     Sum         341     341    109                 4697     4697     847



     bravais-lattice index     =            0
     lattice parameter (alat)  =       4.0400  a.u.
     unit-cell volume          =      65.9393 (a.u.)^3
     number of atoms/cell      =            2
     number of atomic types    =            1
     number of electrons       =         6.00
     number of Kohn-Sham states=            7
     kinetic-energy cutoff     =      65.0000  Ry
     charge density cutoff     =     260.0000  Ry
     convergence threshold     =      1.0E-06
     mixing beta               =       0.1000
     number of iterations used =           10  TF        mixing
     Exchange-correlation      = SLA PW PBX PBC ( 1  4  3  4 0 0)

     celldm(1)=   4.040000  celldm(2)=   0.000000  celldm(3)=   0.000000
     celldm(4)=   0.000000  celldm(5)=   0.000000  celldm(6)=   0.000000

     crystal axes: (cart. coord. in units of alat)
               a(1) = (   1.000000   0.000000   0.000000 )  
               a(2) = (   0.000000   1.000000   0.000000 )  
               a(3) = (   0.000000   0.000000   1.000000 )  

     reciprocal axes: (cart. coord. in units 2 pi/alat)
               b(1) = (  1.000000  0.000000  0.000000 )  
               b(2) = (  0.000000  1.000000  0.000000 )  
               b(3) = (  0.000000  0.000000  1.000000 )  


     PseudoPot. # 1 for Al read from file:
     /opt/pp/Al.pbe-nl-kjpaw_psl.1.0.0.UPF
     MD5 check sum: 1b67f78b73fe58c7924490f171ce8a1e
     Pseudo is Projector augmented-wave + core cor, Zval =  3.0
     Generated using "atomic" code by A. Dal Corso v.6.3
     Shape of augmentation charge: PSQ
     Using radial grid of 1135 points,  4 beta functions with: 
                l(1) =   0
                l(2) =   0
                l(3) =   1
                l(4) =   1
     Q(r) pseudized with 0 coefficients 


     atomic species   valence    mass     pseudopotential
        Al             3.00    26.98200     Al( 1.00)

     No symmetry found



   Cartesian axes

     site n.     atom                  positions (alat units)
         1           Al  tau(   1) = (  -0.0001235   0.0000359   0.0002572  )
         2           Al  tau(   2) = (   0.5003009   0.4992819   0.5002658  )

     number of k points=    32  Marzari-Vanderbilt smearing, width (Ry)=  0.0200
                       cart. coord. in units 2pi/alat
        k(    1) = (   0.1250000   0.1250000   0.1250000), wk =   0.0625000
        k(    2) = (   0.1250000   0.1250000   0.3750000), wk =   0.0625000
        k(    3) = (   0.1250000   0.3750000   0.3750000), wk =   0.0625000
        k(    4) = (   0.3750000   0.3750000   0.3750000), wk =   0.0625000
        k(    5) = (  -0.1250000  -0.1250000   0.1250000), wk =   0.0625000
        k(    6) = (  -0.1250000   0.1250000  -0.1250000), wk =   0.0625000
        k(    7) = (   0.1250000  -0.1250000  -0.1250000), wk =   0.0625000
        k(    8) = (  -0.1250000  -0.1250000   0.3750000), wk =   0.0625000
        k(    9) = (  -0.1250000   0.1250000  -0.3750000), wk =   0.0625000
        k(   10) = (   0.1250000  -0.1250000  -0.3750000), wk =   0.0625000
        k(   11) = (   0.3750000  -0.1250000   0.1250000), wk =   0.0625000
        k(   12) = (  -0.3750000  -0.1250000  -0.1250000), wk =   0.0625000
        k(   13) = (   0.3750000   0.1250000  -0.1250000), wk =   0.0625000
        k(   14) = (  -0.3750000   0.1250000   0.1250000), wk =   0.0625000
        k(   15) = (  -0.1250000   0.3750000   0.1250000), wk =   0.0625000
        k(   16) = (  -0.1250000  -0.3750000  -0.1250000), wk =   0.0625000
        k(   17) = (   0.1250000   0.3750000  -0.1250000), wk =   0.0625000
        k(   18) = (   0.1250000  -0.3750000   0.1250000), wk =   0.0625000
        k(   19) = (  -0.1250000  -0.3750000   0.3750000), wk =   0.0625000
        k(   20) = (  -0.1250000   0.3750000  -0.3750000), wk =   0.0625000
        k(   21) = (   0.1250000  -0.3750000  -0.3750000), wk =   0.0625000
        k(   22) = (   0.3750000   0.1250000  -0.3750000), wk =   0.0625000
        k(   23) = (  -0.3750000  -0.1250000  -0.3750000), wk =   0.0625000
        k(   24) = (   0.3750000  -0.1250000   0.3750000), wk =   0.0625000
        k(   25) = (  -0.3750000   0.1250000   0.3750000), wk =   0.0625000
        k(   26) = (   0.3750000  -0.3750000   0.1250000), wk =   0.0625000
        k(   27) = (  -0.3750000  -0.3750000  -0.1250000), wk =   0.0625000
        k(   28) = (   0.3750000   0.3750000  -0.1250000), wk =   0.0625000
        k(   29) = (  -0.3750000   0.3750000   0.1250000), wk =   0.0625000
        k(   30) = (  -0.3750000  -0.3750000   0.3750000), wk =   0.0625000
        k(   31) = (  -0.3750000   0.3750000  -0.3750000), wk =   0.0625000
        k(   32) = (   0.3750000  -0.3750000  -0.3750000), wk =   0.0625000

     Dense  grid:     4697 G-vectors     FFT dimensions: (  24,  24,  24)

     Estimated max dynamical RAM per process >       9.21 MB

     Initial potential from superposition of free atoms

     starting charge    5.99542, renormalised to    6.00000
     Starting wfcs are    8 randomized atomic wfcs
     Checking if some PAW data can be deallocated... 

     total cpu time spent up to now is        1.0 secs

     Self-consistent Calculation

     iteration #  1     ecut=    65.00 Ry     beta= 0.10
     Davidson diagonalization with overlap
     ethr =  1.00E-02,  avg # of iterations =  4.2

     Threshold (ethr) on eigenvalues was too large:
     Diagonalizing with lowered threshold

     Davidson diagonalization with overlap
     ethr =  5.98E-04,  avg # of iterations =  1.0

     total cpu time spent up to now is        2.2 secs

     total energy              =     -76.87952283 Ry
     Harris-Foulkes estimate   =     -76.89114419 Ry
     estimated scf accuracy    <       0.03588395 Ry

     iteration #  2     ecut=    65.00 Ry     beta= 0.10
     Davidson diagonalization with overlap
     ethr =  5.98E-04,  avg # of iterations =  1.0

     total cpu time spent up to now is        2.7 secs

     total energy              =     -76.84888548 Ry
     Harris-Foulkes estimate   =     -76.87956831 Ry
     estimated scf accuracy    <       0.03071089 Ry

     iteration #  3     ecut=    65.00 Ry     beta= 0.10
     Davidson diagonalization with overlap
     ethr =  5.12E-04,  avg # of iterations =  1.9

     total cpu time spent up to now is        3.2 secs

     total energy              =     -76.85017545 Ry
     Harris-Foulkes estimate   =     -76.85190013 Ry
     estimated scf accuracy    <       0.00012931 Ry

     iteration #  4     ecut=    65.00 Ry     beta= 0.10
     Davidson diagonalization with overlap
     ethr =  2.16E-06,  avg # of iterations =  5.2

     total cpu time spent up to now is        3.9 secs

     total energy              =     -76.84835374 Ry
     Harris-Foulkes estimate   =     -76.85031631 Ry
     estimated scf accuracy    <       0.00008624 Ry

     iteration #  5     ecut=    65.00 Ry     beta= 0.10
     Davidson diagonalization with overlap
     ethr =  1.44E-06,  avg # of iterations =  2.1

     total cpu time spent up to now is        4.5 secs

     total energy              =     -76.84838998 Ry
     Harris-Foulkes estimate   =     -76.84839562 Ry
     estimated scf accuracy    <       0.00000299 Ry

     iteration #  6     ecut=    65.00 Ry     beta= 0.10
     Davidson diagonalization with overlap
     ethr =  4.99E-08,  avg # of iterations =  3.0

     total cpu time spent up to now is        5.1 secs

     End of self-consistent calculation

          k = 0.1250 0.1250 0.1250 (   585 PWs)   bands (ev):

     8.6281  25.4946  25.4947  34.8443  40.9216  40.9217  44.6723

          k = 0.1250 0.1250 0.3750 (   579 PWs)   bands (ev):

    12.3705  18.8183  28.7891  35.2805  35.8340  39.8860  43.3096

          k = 0.1250 0.3750 0.3750 (   589 PWs)   bands (ev):

    15.8088  20.9378  23.3188  28.1876  35.7277  37.8069  49.3828

          k = 0.3750 0.3750 0.3750 (   591 PWs)   bands (ev):

    18.9097  23.5360  23.5360  29.1295  29.1451  29.1467  46.3150

          k =-0.1250-0.1250 0.1250 (   585 PWs)   bands (ev):

     8.6281  25.4946  25.4947  34.8443  40.9216  40.9217  44.6723

          k =-0.1250 0.1250-0.1250 (   585 PWs)   bands (ev):

     8.6281  25.4947  25.4947  34.8443  40.9216  40.9216  44.6724

          k = 0.1250-0.1250-0.1250 (   585 PWs)   bands (ev):

     8.6281  25.4946  25.4947  34.8443  40.9216  40.9216  44.6724

          k =-0.1250-0.1250 0.3750 (   579 PWs)   bands (ev):

    12.3705  18.8183  28.7891  35.2805  35.8340  39.8860  43.3096

          k =-0.1250 0.1250-0.3750 (   579 PWs)   bands (ev):

    12.3705  18.8183  28.7891  35.2808  35.8337  39.8860  43.3096

          k = 0.1250-0.1250-0.3750 (   579 PWs)   bands (ev):

    12.3705  18.8183  28.7891  35.2808  35.8337  39.8860  43.3096

          k = 0.3750-0.1250 0.1250 (   579 PWs)   bands (ev):

    12.3705  18.8183  28.7891  35.2807  35.8338  39.8860  43.3096

          k =-0.3750-0.1250-0.1250 (   579 PWs)   bands (ev):

    12.3705  18.8183  28.7891  35.2807  35.8338  39.8860  43.3096

          k = 0.3750 0.1250-0.1250 (   579 PWs)   bands (ev):

    12.3705  18.8183  28.7891  35.2807  35.8338  39.8860  43.3096

          k =-0.3750 0.1250 0.1250 (   579 PWs)   bands (ev):

    12.3705  18.8183  28.7891  35.2807  35.8338  39.8860  43.3096

          k =-0.1250 0.3750 0.1250 (   579 PWs)   bands (ev):

    12.3705  18.8183  28.7891  35.2808  35.8337  39.8860  43.3096

          k =-0.1250-0.3750-0.1250 (   579 PWs)   bands (ev):

    12.3705  18.8183  28.7891  35.2808  35.8337  39.8860  43.3096

          k = 0.1250 0.3750-0.1250 (   579 PWs)   bands (ev):

    12.3705  18.8183  28.7891  35.2808  35.8337  39.8860  43.3096

          k = 0.1250-0.3750 0.1250 (   579 PWs)   bands (ev):

    12.3705  18.8183  28.7891  35.2808  35.8337  39.8860  43.3096

          k =-0.1250-0.3750 0.3750 (   589 PWs)   bands (ev):

    15.8088  20.9378  23.3188  28.1876  35.7277  37.8069  49.3828

          k =-0.1250 0.3750-0.3750 (   589 PWs)   bands (ev):

    15.8088  20.9378  23.3188  28.1876  35.7277  37.8069  49.3828

          k = 0.1250-0.3750-0.3750 (   589 PWs)   bands (ev):

    15.8088  20.9378  23.3188  28.1876  35.7277  37.8069  49.3828

          k = 0.3750 0.1250-0.3750 (   589 PWs)   bands (ev):

    15.8088  20.9378  23.3188  28.1876  35.7277  37.8069  49.3828

          k =-0.3750-0.1250-0.3750 (   589 PWs)   bands (ev):

    15.8088  20.9378  23.3188  28.1876  35.7277  37.8069  49.3828

          k = 0.3750-0.1250 0.3750 (   589 PWs)   bands (ev):

    15.8088  20.9378  23.3188  28.1876  35.7277  37.8069  49.3828

          k =-0.3750 0.1250 0.3750 (   589 PWs)   bands (ev):

    15.8088  20.9378  23.3188  28.1876  35.7277  37.8069  49.3828

          k = 0.3750-0.3750 0.1250 (   589 PWs)   bands (ev):

    15.8088  20.9378  23.3188  28.1876  35.7277  37.8069  49.3828

          k =-0.3750-0.3750-0.1250 (   589 PWs)   bands (ev):

    15.8088  20.9378  23.3188  28.1876  35.7277  37.8069  49.3828

          k = 0.3750 0.3750-0.1250 (   589 PWs)   bands (ev):

    15.8088  20.9378  23.3188  28.1876  35.7277  37.8069  49.3828

          k =-0.3750 0.3750 0.1250 (   589 PWs)   bands (ev):

    15.8088  20.9378  23.3188  28.1876  35.7277  37.8069  49.3828

          k =-0.3750-0.3750 0.3750 (   591 PWs)   bands (ev):

    18.9097  23.5360  23.5360  29.1295  29.1451  29.1467  46.3150

          k =-0.3750 0.3750-0.3750 (   591 PWs)   bands (ev):

    18.9097  23.5360  23.5360  29.1304  29.1451  29.1458  46.3150

          k = 0.3750-0.3750-0.3750 (   591 PWs)   bands (ev):

    18.9097  23.5360  23.5360  29.1304  29.1451  29.1458  46.3150

     the Fermi energy is    28.4320 ev

!    total energy              =     -76.84837443 Ry
     Harris-Foulkes estimate   =     -76.84839267 Ry
     estimated scf accuracy    <       0.00000062 Ry

     total all-electron energy =      -969.133935 Ry

     The total energy is the sum of the following terms:

     one-electron contribution =      16.33624332 Ry
     hartree contribution      =       0.09270529 Ry
     xc contribution           =      -7.03879870 Ry
     ewald contribution        =     -16.21439947 Ry
     one-center paw contrib.   =     -70.02502141 Ry
     smearing contrib. (-TS)   =       0.00089654 Ry

     convergence has been achieved in   6 iterations

     Forces acting on atoms (cartesian axes, Ry/au):

     atom    1 type  1   force =     0.00251541   -0.00452088    0.00006255
     atom    2 type  1   force =    -0.00251541    0.00452088   -0.00006255

     Total force =     0.007317     Total SCF correction =     0.000189


     Computing stress (Cartesian axis) and pressure

          total   stress  (Ry/bohr**3)                   (kbar)     P=10848.10
   0.07374393  -0.00000020   0.00000001      10848.10     -0.03      0.00
  -0.00000020   0.07374364   0.00000002         -0.03  10848.06      0.00
   0.00000001   0.00000002   0.07374407          0.00      0.00  10848.13


     Writing output data file fe_scf_fcc_2.save/

     init_run     :      0.57s CPU      0.60s WALL (       1 calls)
     electrons    :      4.02s CPU      4.06s WALL (       1 calls)
     forces       :      0.05s CPU      0.05s WALL (       1 calls)
     stress       :      0.15s CPU      0.15s WALL (       1 calls)

     Called by init_run:
     wfcinit      :      0.16s CPU      0.17s WALL (       1 calls)
     potinit      :      0.13s CPU      0.14s WALL (       1 calls)
     hinit0       :      0.27s CPU      0.27s WALL (       1 calls)

     Called by electrons:
     c_bands      :      2.69s CPU      2.71s WALL (       7 calls)
     sum_band     :      0.50s CPU      0.51s WALL (       7 calls)
     v_of_rho     :      0.08s CPU      0.09s WALL (       7 calls)
     newd         :      0.05s CPU      0.04s WALL (       7 calls)
     PAW_pot      :      0.84s CPU      0.85s WALL (       7 calls)
     mix_rho      :      0.00s CPU      0.01s WALL (       7 calls)

     Called by c_bands:
     init_us_2    :      0.10s CPU      0.09s WALL (     544 calls)
     cegterg      :      2.61s CPU      2.61s WALL (     224 calls)

     Called by sum_band:
     sum_band:bec :      0.00s CPU      0.00s WALL (     224 calls)
     addusdens    :      0.03s CPU      0.03s WALL (       7 calls)

     Called by *egterg:
     h_psi        :      2.40s CPU      2.43s WALL (     846 calls)
     s_psi        :      0.04s CPU      0.04s WALL (     846 calls)
     g_psi        :      0.01s CPU      0.01s WALL (     590 calls)
     cdiaghg      :      0.10s CPU      0.10s WALL (     782 calls)

     Called by h_psi:
     h_psi:pot    :      2.39s CPU      2.42s WALL (     846 calls)
     h_psi:calbec :      0.04s CPU      0.05s WALL (     846 calls)
     vloc_psi     :      2.29s CPU      2.33s WALL (     846 calls)
     add_vuspsi   :      0.06s CPU      0.05s WALL (     846 calls)

     General routines
     calbec       :      0.08s CPU      0.07s WALL (    1230 calls)
     fft          :      0.07s CPU      0.07s WALL (     104 calls)
     ffts         :      0.00s CPU      0.00s WALL (       7 calls)
     fftw         :      2.47s CPU      2.53s WALL (   10602 calls)

     Parallel routines

     PWSCF        :     5.23s CPU         5.30s WALL


   This run was terminated on:   0:19:25  30Oct2019            

=------------------------------------------------------------------------------=
   JOB DONE.
=------------------------------------------------------------------------------=
