
     Program PWSCF v.6.4.1 starts on 24Feb2020 at 15:51:57 

     This program is part of the open-source Quantum ESPRESSO suite
     for quantum simulation of materials; please cite
         "P. Giannozzi et al., J. Phys.:Condens. Matter 21 395502 (2009);
         "P. Giannozzi et al., J. Phys.:Condens. Matter 29 465901 (2017);
          URL http://www.quantum-espresso.org", 
     in publications or presentations arising from this work. More details at
     http://www.quantum-espresso.org/quote

     Parallel version (MPI), running on     4 processors

     MPI processes distributed on     1 nodes
     R & G space division:  proc/nbgrp/npool/nimage =       4
     Reading input from /cloud/Code/python/py_pwscf_converge/src/example2/wd/runpwscf/file_10136.in
Warning: card &IONS ignored
Warning: card ION_DYNAMICS = 'BFGS', ignored
Warning: card / ignored
Warning: card &CELL ignored
Warning: card CELL_DYNAMICS = 'BFGS', ignored
Warning: card CELL_FACTOR = 2.0, ignored
Warning: card PRESS = 0.0, ignored
Warning: card / ignored

     Current dimensions of program PWSCF are:
     Max number of different atomic species (ntypx) = 10
     Max number of k-points (npk) =  40000
     Max angular momentum in pseudopotentials (lmaxx) =  3
               file Al.pbe-nl-kjpaw_psl.1.0.0.UPF: wavefunction(s)  3S 3P renormalized

     Subspace diagonalization in iterative solution of the eigenvalue problem:
     a serial algorithm will be used


     Parallelization info
     --------------------
     sticks:   dense  smooth     PW     G-vecs:    dense   smooth      PW
     Min         252     252     73                 6100     6100     947
     Max         253     253     74                 6104     6104     950
     Sum        1009    1009    293                24405    24405    3791



     bravais-lattice index     =            0
     lattice parameter (alat)  =       7.6356  a.u.
     unit-cell volume          =     445.1737 (a.u.)^3
     number of atoms/cell      =            2
     number of atomic types    =            1
     number of electrons       =         6.00
     number of Kohn-Sham states=            7
     kinetic-energy cutoff     =      55.0000  Ry
     charge density cutoff     =     220.0000  Ry
     convergence threshold     =      1.0E-06
     mixing beta               =       0.1000
     number of iterations used =           10  TF        mixing
     Exchange-correlation      = SLA PW PBX PBC ( 1  4  3  4 0 0)

     celldm(1)=   7.635600  celldm(2)=   0.000000  celldm(3)=   0.000000
     celldm(4)=   0.000000  celldm(5)=   0.000000  celldm(6)=   0.000000

     crystal axes: (cart. coord. in units of alat)
               a(1) = (   1.000000   0.000000   0.000000 )  
               a(2) = (   0.000000   1.000000   0.000000 )  
               a(3) = (   0.000000   0.000000   1.000000 )  

     reciprocal axes: (cart. coord. in units 2 pi/alat)
               b(1) = (  1.000000  0.000000  0.000000 )  
               b(2) = (  0.000000  1.000000  0.000000 )  
               b(3) = (  0.000000  0.000000  1.000000 )  


     PseudoPot. # 1 for Al read from file:
     /opt/pp/Al.pbe-nl-kjpaw_psl.1.0.0.UPF
     MD5 check sum: 1b67f78b73fe58c7924490f171ce8a1e
     Pseudo is Projector augmented-wave + core cor, Zval =  3.0
     Generated using "atomic" code by A. Dal Corso v.6.3
     Shape of augmentation charge: PSQ
     Using radial grid of 1135 points,  4 beta functions with: 
                l(1) =   0
                l(2) =   0
                l(3) =   1
                l(4) =   1
     Q(r) pseudized with 0 coefficients 


     atomic species   valence    mass     pseudopotential
        Al             3.00    26.98200     Al( 1.00)

     No symmetry found



   Cartesian axes

     site n.     atom                  positions (alat units)
         1           Al  tau(   1) = (  -0.0000654   0.0000190   0.0001361  )
         2           Al  tau(   2) = (   0.5001592   0.4996200   0.5001406  )

     number of k points=    32  Marzari-Vanderbilt smearing, width (Ry)=  0.0200
                       cart. coord. in units 2pi/alat
        k(    1) = (   0.1250000   0.1250000   0.1250000), wk =   0.0625000
        k(    2) = (   0.1250000   0.1250000   0.3750000), wk =   0.0625000
        k(    3) = (   0.1250000   0.3750000   0.3750000), wk =   0.0625000
        k(    4) = (   0.3750000   0.3750000   0.3750000), wk =   0.0625000
        k(    5) = (  -0.1250000  -0.1250000   0.1250000), wk =   0.0625000
        k(    6) = (  -0.1250000   0.1250000  -0.1250000), wk =   0.0625000
        k(    7) = (   0.1250000  -0.1250000  -0.1250000), wk =   0.0625000
        k(    8) = (  -0.1250000  -0.1250000   0.3750000), wk =   0.0625000
        k(    9) = (  -0.1250000   0.1250000  -0.3750000), wk =   0.0625000
        k(   10) = (   0.1250000  -0.1250000  -0.3750000), wk =   0.0625000
        k(   11) = (   0.3750000  -0.1250000   0.1250000), wk =   0.0625000
        k(   12) = (  -0.3750000  -0.1250000  -0.1250000), wk =   0.0625000
        k(   13) = (   0.3750000   0.1250000  -0.1250000), wk =   0.0625000
        k(   14) = (  -0.3750000   0.1250000   0.1250000), wk =   0.0625000
        k(   15) = (  -0.1250000   0.3750000   0.1250000), wk =   0.0625000
        k(   16) = (  -0.1250000  -0.3750000  -0.1250000), wk =   0.0625000
        k(   17) = (   0.1250000   0.3750000  -0.1250000), wk =   0.0625000
        k(   18) = (   0.1250000  -0.3750000   0.1250000), wk =   0.0625000
        k(   19) = (  -0.1250000  -0.3750000   0.3750000), wk =   0.0625000
        k(   20) = (  -0.1250000   0.3750000  -0.3750000), wk =   0.0625000
        k(   21) = (   0.1250000  -0.3750000  -0.3750000), wk =   0.0625000
        k(   22) = (   0.3750000   0.1250000  -0.3750000), wk =   0.0625000
        k(   23) = (  -0.3750000  -0.1250000  -0.3750000), wk =   0.0625000
        k(   24) = (   0.3750000  -0.1250000   0.3750000), wk =   0.0625000
        k(   25) = (  -0.3750000   0.1250000   0.3750000), wk =   0.0625000
        k(   26) = (   0.3750000  -0.3750000   0.1250000), wk =   0.0625000
        k(   27) = (  -0.3750000  -0.3750000  -0.1250000), wk =   0.0625000
        k(   28) = (   0.3750000   0.3750000  -0.1250000), wk =   0.0625000
        k(   29) = (  -0.3750000   0.3750000   0.1250000), wk =   0.0625000
        k(   30) = (  -0.3750000  -0.3750000   0.3750000), wk =   0.0625000
        k(   31) = (  -0.3750000   0.3750000  -0.3750000), wk =   0.0625000
        k(   32) = (   0.3750000  -0.3750000  -0.3750000), wk =   0.0625000

     Dense  grid:    24405 G-vectors     FFT dimensions: (  40,  40,  40)

     Estimated max dynamical RAM per process >      11.97 MB

     Estimated total dynamical RAM >      47.87 MB

     Initial potential from superposition of free atoms

     starting charge    5.99542, renormalised to    6.00000
     Starting wfcs are    8 randomized atomic wfcs
     Checking if some PAW data can be deallocated... 

     total cpu time spent up to now is        0.9 secs

     Self-consistent Calculation

     iteration #  1     ecut=    55.00 Ry     beta= 0.10
     Davidson diagonalization with overlap
     ethr =  1.00E-02,  avg # of iterations =  3.0

     Threshold (ethr) on eigenvalues was too large:
     Diagonalizing with lowered threshold

     Davidson diagonalization with overlap
     ethr =  1.36E-04,  avg # of iterations =  2.5

     total cpu time spent up to now is        2.0 secs

     total energy              =     -78.84837617 Ry
     Harris-Foulkes estimate   =     -78.84866976 Ry
     estimated scf accuracy    <       0.00802213 Ry

     iteration #  2     ecut=    55.00 Ry     beta= 0.10
     Davidson diagonalization with overlap
     ethr =  1.34E-04,  avg # of iterations =  1.0

     total cpu time spent up to now is        2.5 secs

     total energy              =     -78.84619153 Ry
     Harris-Foulkes estimate   =     -78.84840922 Ry
     estimated scf accuracy    <       0.00702612 Ry

     iteration #  3     ecut=    55.00 Ry     beta= 0.10
     Davidson diagonalization with overlap
     ethr =  1.17E-04,  avg # of iterations =  1.0

     total cpu time spent up to now is        3.0 secs

     total energy              =     -78.84654471 Ry
     Harris-Foulkes estimate   =     -78.84658933 Ry
     estimated scf accuracy    <       0.00004436 Ry

     iteration #  4     ecut=    55.00 Ry     beta= 0.10
     Davidson diagonalization with overlap
     ethr =  7.39E-07,  avg # of iterations =  3.6

     total cpu time spent up to now is        3.7 secs

     total energy              =     -78.84650566 Ry
     Harris-Foulkes estimate   =     -78.84659331 Ry
     estimated scf accuracy    <       0.00003030 Ry

     iteration #  5     ecut=    55.00 Ry     beta= 0.10
     Davidson diagonalization with overlap
     ethr =  5.05E-07,  avg # of iterations =  2.0

     total cpu time spent up to now is        4.2 secs

     total energy              =     -78.84647793 Ry
     Harris-Foulkes estimate   =     -78.84651216 Ry
     estimated scf accuracy    <       0.00004691 Ry

     iteration #  6     ecut=    55.00 Ry     beta= 0.10
     Davidson diagonalization with overlap
     ethr =  5.05E-07,  avg # of iterations =  2.0

     total cpu time spent up to now is        4.7 secs

     End of self-consistent calculation

          k = 0.1250 0.1250 0.1250 (  3056 PWs)   bands (ev):

    -4.4255   1.0102   2.7006   2.7007   5.4533   7.3966   7.7335

          k = 0.1250 0.1250 0.3750 (  3056 PWs)   bands (ev):

    -3.3349  -1.2263   2.9070   3.7500   4.8828   5.8009   6.8317

          k = 0.1250 0.3750 0.3750 (  3076 PWs)   bands (ev):

    -2.2806  -0.7135   0.7116   2.2458   4.4303   5.9919   7.0168

          k = 0.3750 0.3750 0.3750 (  3064 PWs)   bands (ev):

    -1.2688  -0.1190   1.7874   1.7874   2.5355   3.9198   3.9198

          k =-0.1250-0.1250 0.1250 (  3056 PWs)   bands (ev):

    -4.4255   1.0102   2.7006   2.7007   5.4534   7.3966   7.7335

          k =-0.1250 0.1250-0.1250 (  3056 PWs)   bands (ev):

    -4.4255   1.0102   2.7006   2.7006   5.4534   7.3966   7.7335

          k = 0.1250-0.1250-0.1250 (  3056 PWs)   bands (ev):

    -4.4255   1.0102   2.7006   2.7006   5.4534   7.3966   7.7335

          k =-0.1250-0.1250 0.3750 (  3056 PWs)   bands (ev):

    -3.3349  -1.2263   2.9070   3.7499   4.8828   5.8009   6.8317

          k =-0.1250 0.1250-0.3750 (  3056 PWs)   bands (ev):

    -3.3349  -1.2263   2.9070   3.7499   4.8828   5.8009   6.8318

          k = 0.1250-0.1250-0.3750 (  3056 PWs)   bands (ev):

    -3.3349  -1.2263   2.9071   3.7499   4.8828   5.8009   6.8318

          k = 0.3750-0.1250 0.1250 (  3056 PWs)   bands (ev):

    -3.3349  -1.2262   2.9070   3.7499   4.8828   5.8009   6.8318

          k =-0.3750-0.1250-0.1250 (  3056 PWs)   bands (ev):

    -3.3349  -1.2263   2.9070   3.7499   4.8828   5.8009   6.8317

          k = 0.3750 0.1250-0.1250 (  3056 PWs)   bands (ev):

    -3.3349  -1.2262   2.9071   3.7499   4.8828   5.8009   6.8318

          k =-0.3750 0.1250 0.1250 (  3056 PWs)   bands (ev):

    -3.3349  -1.2262   2.9070   3.7499   4.8828   5.8009   6.8318

          k =-0.1250 0.3750 0.1250 (  3056 PWs)   bands (ev):

    -3.3349  -1.2262   2.9070   3.7499   4.8828   5.8009   6.8318

          k =-0.1250-0.3750-0.1250 (  3056 PWs)   bands (ev):

    -3.3349  -1.2262   2.9070   3.7499   4.8828   5.8009   6.8317

          k = 0.1250 0.3750-0.1250 (  3056 PWs)   bands (ev):

    -3.3349  -1.2262   2.9070   3.7499   4.8828   5.8009   6.8318

          k = 0.1250-0.3750 0.1250 (  3056 PWs)   bands (ev):

    -3.3349  -1.2262   2.9070   3.7499   4.8829   5.8009   6.8318

          k =-0.1250-0.3750 0.3750 (  3076 PWs)   bands (ev):

    -2.2806  -0.7135   0.7115   2.2458   4.4303   5.9919   7.0168

          k =-0.1250 0.3750-0.3750 (  3076 PWs)   bands (ev):

    -2.2806  -0.7135   0.7115   2.2458   4.4303   5.9919   7.0168

          k = 0.1250-0.3750-0.3750 (  3076 PWs)   bands (ev):

    -2.2806  -0.7135   0.7116   2.2458   4.4303   5.9919   7.0168

          k = 0.3750 0.1250-0.3750 (  3076 PWs)   bands (ev):

    -2.2806  -0.7135   0.7115   2.2458   4.4303   5.9919   7.0168

          k =-0.3750-0.1250-0.3750 (  3076 PWs)   bands (ev):

    -2.2806  -0.7135   0.7116   2.2458   4.4303   5.9919   7.0168

          k = 0.3750-0.1250 0.3750 (  3076 PWs)   bands (ev):

    -2.2806  -0.7135   0.7116   2.2458   4.4303   5.9919   7.0168

          k =-0.3750 0.1250 0.3750 (  3076 PWs)   bands (ev):

    -2.2806  -0.7135   0.7115   2.2458   4.4303   5.9919   7.0168

          k = 0.3750-0.3750 0.1250 (  3076 PWs)   bands (ev):

    -2.2806  -0.7135   0.7115   2.2458   4.4303   5.9919   7.0168

          k =-0.3750-0.3750-0.1250 (  3076 PWs)   bands (ev):

    -2.2806  -0.7135   0.7116   2.2458   4.4303   5.9919   7.0168

          k = 0.3750 0.3750-0.1250 (  3076 PWs)   bands (ev):

    -2.2806  -0.7135   0.7116   2.2458   4.4303   5.9919   7.0169

          k =-0.3750 0.3750 0.1250 (  3076 PWs)   bands (ev):

    -2.2806  -0.7135   0.7115   2.2458   4.4303   5.9919   7.0168

          k =-0.3750-0.3750 0.3750 (  3064 PWs)   bands (ev):

    -1.2688  -0.1190   1.7873   1.7874   2.5355   3.9197   3.9198

          k =-0.3750 0.3750-0.3750 (  3064 PWs)   bands (ev):

    -1.2688  -0.1190   1.7874   1.7874   2.5355   3.9197   3.9198

          k = 0.3750-0.3750-0.3750 (  3064 PWs)   bands (ev):

    -1.2688  -0.1190   1.7873   1.7874   2.5355   3.9197   3.9198

     the Fermi energy is     2.4392 ev

!    total energy              =     -78.84648061 Ry
     Harris-Foulkes estimate   =     -78.84648231 Ry
     estimated scf accuracy    <       0.00000075 Ry

     total all-electron energy =      -971.132042 Ry

     The total energy is the sum of the following terms:

     one-electron contribution =       3.57737004 Ry
     hartree contribution      =       0.10227578 Ry
     xc contribution           =      -4.62866560 Ry
     ewald contribution        =      -8.57905001 Ry
     one-center paw contrib.   =     -69.31768240 Ry
     smearing contrib. (-TS)   =      -0.00072841 Ry

     convergence has been achieved in   6 iterations

     Forces acting on atoms (cartesian axes, Ry/au):

     atom    1 type  1   force =     0.00002222   -0.00002012    0.00000295
     atom    2 type  1   force =    -0.00002222    0.00002012   -0.00000295

     Total force =     0.000043     Total SCF correction =     0.000114
     SCF correction compared to forces is large: reduce conv_thr to get better values


     Computing stress (Cartesian axis) and pressure

          total   stress  (Ry/bohr**3)                   (kbar)     P=  -93.08
  -0.00063271  -0.00000001  -0.00000001        -93.08     -0.00     -0.00
  -0.00000001  -0.00063273   0.00000000         -0.00    -93.08      0.00
  -0.00000001   0.00000000  -0.00063271         -0.00      0.00    -93.07


     Writing output data file fe_scf_fcc_2.save/

     init_run     :      0.37s CPU      0.39s WALL (       1 calls)
     electrons    :      3.55s CPU      3.83s WALL (       1 calls)
     forces       :      0.07s CPU      0.07s WALL (       1 calls)
     stress       :      0.18s CPU      0.18s WALL (       1 calls)

     Called by init_run:
     wfcinit      :      0.25s CPU      0.26s WALL (       1 calls)
     potinit      :      0.04s CPU      0.05s WALL (       1 calls)
     hinit0       :      0.07s CPU      0.07s WALL (       1 calls)

     Called by electrons:
     c_bands      :      2.79s CPU      3.00s WALL (       7 calls)
     sum_band     :      0.49s CPU      0.51s WALL (       7 calls)
     v_of_rho     :      0.07s CPU      0.10s WALL (       7 calls)
     newd         :      0.05s CPU      0.05s WALL (       7 calls)
     PAW_pot      :      0.17s CPU      0.20s WALL (       7 calls)
     mix_rho      :      0.01s CPU      0.01s WALL (       7 calls)

     Called by c_bands:
     init_us_2    :      0.08s CPU      0.08s WALL (     544 calls)
     cegterg      :      2.68s CPU      2.88s WALL (     224 calls)

     Called by sum_band:
     sum_band:bec :      0.00s CPU      0.00s WALL (     224 calls)
     addusdens    :      0.02s CPU      0.03s WALL (       7 calls)

     Called by *egterg:
     h_psi        :      2.34s CPU      2.51s WALL (     739 calls)
     s_psi        :      0.09s CPU      0.10s WALL (     739 calls)
     g_psi        :      0.01s CPU      0.01s WALL (     483 calls)
     cdiaghg      :      0.08s CPU      0.08s WALL (     675 calls)

     Called by h_psi:
     h_psi:pot    :      2.33s CPU      2.50s WALL (     739 calls)
     h_psi:calbec :      0.15s CPU      0.17s WALL (     739 calls)
     vloc_psi     :      2.09s CPU      2.24s WALL (     739 calls)
     add_vuspsi   :      0.09s CPU      0.09s WALL (     739 calls)

     General routines
     calbec       :      0.25s CPU      0.27s WALL (    1123 calls)
     fft          :      0.06s CPU      0.07s WALL (     103 calls)
     ffts         :      0.00s CPU      0.00s WALL (       7 calls)
     fftw         :      2.25s CPU      2.40s WALL (   10160 calls)

     Parallel routines
     fft_scatt_xy :      0.26s CPU      0.28s WALL (   10270 calls)
     fft_scatt_yz :      0.80s CPU      0.86s WALL (   10270 calls)

     PWSCF        :      4.64s CPU      4.97s WALL


   This run was terminated on:  15:52: 2  24Feb2020            

=------------------------------------------------------------------------------=
   JOB DONE.
=------------------------------------------------------------------------------=
