
     Program PWSCF v.6.4.1 starts on 24Feb2020 at 15:44:36 

     This program is part of the open-source Quantum ESPRESSO suite
     for quantum simulation of materials; please cite
         "P. Giannozzi et al., J. Phys.:Condens. Matter 21 395502 (2009);
         "P. Giannozzi et al., J. Phys.:Condens. Matter 29 465901 (2017);
          URL http://www.quantum-espresso.org", 
     in publications or presentations arising from this work. More details at
     http://www.quantum-espresso.org/quote

     Parallel version (MPI), running on     4 processors

     MPI processes distributed on     1 nodes
     R & G space division:  proc/nbgrp/npool/nimage =       4
     Reading input from /cloud/Code/python/py_pwscf_converge/src/example2/wd/runpwscf/file_10033.in
Warning: card &IONS ignored
Warning: card ION_DYNAMICS = 'BFGS', ignored
Warning: card / ignored
Warning: card &CELL ignored
Warning: card CELL_DYNAMICS = 'BFGS', ignored
Warning: card CELL_FACTOR = 2.0, ignored
Warning: card PRESS = 0.0, ignored
Warning: card / ignored

     Current dimensions of program PWSCF are:
     Max number of different atomic species (ntypx) = 10
     Max number of k-points (npk) =  40000
     Max angular momentum in pseudopotentials (lmaxx) =  3
               file Al.pbe-nl-kjpaw_psl.1.0.0.UPF: wavefunction(s)  3S 3P renormalized

     Subspace diagonalization in iterative solution of the eigenvalue problem:
     a serial algorithm will be used


     Parallelization info
     --------------------
     sticks:   dense  smooth     PW     G-vecs:    dense   smooth      PW
     Min         115     115     64                 1873     1873     779
     Max         117     117     66                 1875     1875     780
     Sum         465     465    261                 7497     7497    3119



     bravais-lattice index     =            0
     lattice parameter (alat)  =       7.6356  a.u.
     unit-cell volume          =     445.1737 (a.u.)^3
     number of atoms/cell      =            2
     number of atomic types    =            1
     number of electrons       =         6.00
     number of Kohn-Sham states=            7
     kinetic-energy cutoff     =      46.0000  Ry
     charge density cutoff     =     100.0000  Ry
     convergence threshold     =      1.0E-06
     mixing beta               =       0.1000
     number of iterations used =           10  TF        mixing
     Exchange-correlation      = SLA PW PBX PBC ( 1  4  3  4 0 0)

     celldm(1)=   7.635600  celldm(2)=   0.000000  celldm(3)=   0.000000
     celldm(4)=   0.000000  celldm(5)=   0.000000  celldm(6)=   0.000000

     crystal axes: (cart. coord. in units of alat)
               a(1) = (   1.000000   0.000000   0.000000 )  
               a(2) = (   0.000000   1.000000   0.000000 )  
               a(3) = (   0.000000   0.000000   1.000000 )  

     reciprocal axes: (cart. coord. in units 2 pi/alat)
               b(1) = (  1.000000  0.000000  0.000000 )  
               b(2) = (  0.000000  1.000000  0.000000 )  
               b(3) = (  0.000000  0.000000  1.000000 )  


     PseudoPot. # 1 for Al read from file:
     /opt/pp/Al.pbe-nl-kjpaw_psl.1.0.0.UPF
     MD5 check sum: 1b67f78b73fe58c7924490f171ce8a1e
     Pseudo is Projector augmented-wave + core cor, Zval =  3.0
     Generated using "atomic" code by A. Dal Corso v.6.3
     Shape of augmentation charge: PSQ
     Using radial grid of 1135 points,  4 beta functions with: 
                l(1) =   0
                l(2) =   0
                l(3) =   1
                l(4) =   1
     Q(r) pseudized with 0 coefficients 


     atomic species   valence    mass     pseudopotential
        Al             3.00    26.98200     Al( 1.00)

     No symmetry found



   Cartesian axes

     site n.     atom                  positions (alat units)
         1           Al  tau(   1) = (  -0.0000654   0.0000190   0.0001361  )
         2           Al  tau(   2) = (   0.5001592   0.4996200   0.5001406  )

     number of k points=    63  Marzari-Vanderbilt smearing, width (Ry)=  0.0200
                       cart. coord. in units 2pi/alat
        k(    1) = (   0.1000000   0.1000000   0.1000000), wk =   0.0320000
        k(    2) = (   0.1000000   0.1000000   0.3000000), wk =   0.0320000
        k(    3) = (   0.1000000   0.1000000  -0.5000000), wk =   0.0320000
        k(    4) = (   0.1000000   0.3000000   0.3000000), wk =   0.0320000
        k(    5) = (   0.1000000   0.3000000  -0.5000000), wk =   0.0320000
        k(    6) = (   0.1000000  -0.5000000  -0.5000000), wk =   0.0320000
        k(    7) = (   0.3000000   0.3000000   0.3000000), wk =   0.0320000
        k(    8) = (   0.3000000   0.3000000  -0.5000000), wk =   0.0320000
        k(    9) = (   0.3000000  -0.5000000  -0.5000000), wk =   0.0320000
        k(   10) = (  -0.5000000  -0.5000000  -0.5000000), wk =   0.0160000
        k(   11) = (  -0.1000000  -0.1000000   0.1000000), wk =   0.0320000
        k(   12) = (  -0.1000000   0.1000000  -0.1000000), wk =   0.0320000
        k(   13) = (   0.1000000  -0.1000000  -0.1000000), wk =   0.0320000
        k(   14) = (  -0.1000000  -0.1000000   0.3000000), wk =   0.0320000
        k(   15) = (  -0.1000000   0.1000000  -0.3000000), wk =   0.0320000
        k(   16) = (   0.1000000  -0.1000000  -0.3000000), wk =   0.0320000
        k(   17) = (   0.3000000  -0.1000000   0.1000000), wk =   0.0320000
        k(   18) = (  -0.3000000  -0.1000000  -0.1000000), wk =   0.0320000
        k(   19) = (   0.3000000   0.1000000  -0.1000000), wk =   0.0320000
        k(   20) = (  -0.3000000   0.1000000   0.1000000), wk =   0.0320000
        k(   21) = (  -0.1000000   0.3000000   0.1000000), wk =   0.0320000
        k(   22) = (  -0.1000000  -0.3000000  -0.1000000), wk =   0.0320000
        k(   23) = (   0.1000000   0.3000000  -0.1000000), wk =   0.0320000
        k(   24) = (   0.1000000  -0.3000000   0.1000000), wk =   0.0320000
        k(   25) = (  -0.1000000   0.1000000   0.5000000), wk =   0.0320000
        k(   26) = (  -0.5000000  -0.1000000   0.1000000), wk =   0.0320000
        k(   27) = (   0.5000000  -0.1000000  -0.1000000), wk =   0.0320000
        k(   28) = (  -0.1000000  -0.5000000   0.1000000), wk =   0.0320000
        k(   29) = (  -0.1000000   0.5000000  -0.1000000), wk =   0.0320000
        k(   30) = (  -0.1000000  -0.3000000   0.3000000), wk =   0.0320000
        k(   31) = (  -0.1000000   0.3000000  -0.3000000), wk =   0.0320000
        k(   32) = (   0.1000000  -0.3000000  -0.3000000), wk =   0.0320000
        k(   33) = (   0.3000000   0.1000000  -0.3000000), wk =   0.0320000
        k(   34) = (  -0.3000000  -0.1000000  -0.3000000), wk =   0.0320000
        k(   35) = (   0.3000000  -0.1000000   0.3000000), wk =   0.0320000
        k(   36) = (  -0.3000000   0.1000000   0.3000000), wk =   0.0320000
        k(   37) = (   0.3000000  -0.3000000   0.1000000), wk =   0.0320000
        k(   38) = (  -0.3000000  -0.3000000  -0.1000000), wk =   0.0320000
        k(   39) = (   0.3000000   0.3000000  -0.1000000), wk =   0.0320000
        k(   40) = (  -0.3000000   0.3000000   0.1000000), wk =   0.0320000
        k(   41) = (  -0.1000000   0.3000000   0.5000000), wk =   0.0320000
        k(   42) = (   0.3000000   0.1000000   0.5000000), wk =   0.0320000
        k(   43) = (   0.3000000  -0.1000000  -0.5000000), wk =   0.0320000
        k(   44) = (  -0.5000000  -0.3000000   0.1000000), wk =   0.0320000
        k(   45) = (   0.5000000  -0.3000000  -0.1000000), wk =   0.0320000
        k(   46) = (  -0.1000000  -0.5000000   0.3000000), wk =   0.0320000
        k(   47) = (  -0.1000000   0.5000000  -0.3000000), wk =   0.0320000
        k(   48) = (   0.3000000  -0.5000000   0.1000000), wk =   0.0320000
        k(   49) = (   0.3000000   0.5000000  -0.1000000), wk =   0.0320000
        k(   50) = (  -0.5000000   0.1000000   0.3000000), wk =   0.0320000
        k(   51) = (   0.5000000  -0.1000000   0.3000000), wk =   0.0320000
        k(   52) = (  -0.5000000   0.1000000   0.5000000), wk =   0.0320000
        k(   53) = (  -0.5000000   0.5000000   0.1000000), wk =   0.0320000
        k(   54) = (  -0.3000000  -0.3000000   0.3000000), wk =   0.0320000
        k(   55) = (  -0.3000000   0.3000000  -0.3000000), wk =   0.0320000
        k(   56) = (   0.3000000  -0.3000000  -0.3000000), wk =   0.0320000
        k(   57) = (  -0.3000000   0.3000000   0.5000000), wk =   0.0320000
        k(   58) = (  -0.5000000  -0.3000000   0.3000000), wk =   0.0320000
        k(   59) = (   0.5000000  -0.3000000  -0.3000000), wk =   0.0320000
        k(   60) = (  -0.3000000  -0.5000000   0.3000000), wk =   0.0320000
        k(   61) = (  -0.3000000   0.5000000  -0.3000000), wk =   0.0320000
        k(   62) = (  -0.5000000   0.3000000   0.5000000), wk =   0.0320000
        k(   63) = (  -0.5000000   0.5000000   0.3000000), wk =   0.0320000

     Dense  grid:     7497 G-vectors     FFT dimensions: (  25,  25,  25)

     Estimated max dynamical RAM per process >       7.05 MB

     Estimated total dynamical RAM >      28.20 MB

     Initial potential from superposition of free atoms

     starting charge    5.99542, renormalised to    6.00000
     Starting wfcs are    8 randomized atomic wfcs
     Checking if some PAW data can be deallocated... 

     total cpu time spent up to now is        0.9 secs

     Self-consistent Calculation

     iteration #  1     ecut=    46.00 Ry     beta= 0.10
     Davidson diagonalization with overlap
     ethr =  1.00E-02,  avg # of iterations =  3.3

     Threshold (ethr) on eigenvalues was too large:
     Diagonalizing with lowered threshold

     Davidson diagonalization with overlap
     ethr =  1.34E-04,  avg # of iterations =  2.6

     total cpu time spent up to now is        2.0 secs

     total energy              =     -78.85766555 Ry
     Harris-Foulkes estimate   =     -78.85795409 Ry
     estimated scf accuracy    <       0.00788012 Ry

     iteration #  2     ecut=    46.00 Ry     beta= 0.10
     Davidson diagonalization with overlap
     ethr =  1.31E-04,  avg # of iterations =  1.0

     total cpu time spent up to now is        2.4 secs

     total energy              =     -78.85553959 Ry
     Harris-Foulkes estimate   =     -78.85770463 Ry
     estimated scf accuracy    <       0.00688456 Ry

     iteration #  3     ecut=    46.00 Ry     beta= 0.10
     Davidson diagonalization with overlap
     ethr =  1.15E-04,  avg # of iterations =  1.1

     total cpu time spent up to now is        2.7 secs

     total energy              =     -78.85584381 Ry
     Harris-Foulkes estimate   =     -78.85591084 Ry
     estimated scf accuracy    <       0.00003362 Ry

     iteration #  4     ecut=    46.00 Ry     beta= 0.10
     Davidson diagonalization with overlap
     ethr =  5.60E-07,  avg # of iterations =  3.2

     total cpu time spent up to now is        3.5 secs

     total energy              =     -78.85582611 Ry
     Harris-Foulkes estimate   =     -78.85588675 Ry
     estimated scf accuracy    <       0.00001745 Ry

     iteration #  5     ecut=    46.00 Ry     beta= 0.10
     Davidson diagonalization with overlap
     ethr =  2.91E-07,  avg # of iterations =  2.0

     total cpu time spent up to now is        4.1 secs

     total energy              =     -78.85581742 Ry
     Harris-Foulkes estimate   =     -78.85582887 Ry
     estimated scf accuracy    <       0.00002079 Ry

     iteration #  6     ecut=    46.00 Ry     beta= 0.10
     Davidson diagonalization with overlap
     ethr =  2.91E-07,  avg # of iterations =  2.0

     total cpu time spent up to now is        4.5 secs

     End of self-consistent calculation

          k = 0.1000 0.1000 0.1000 (  2358 PWs)   bands (ev):

    -4.5731   1.2784   2.9240   2.9240   4.9373   7.2247   7.2247

          k = 0.1000 0.1000 0.3000 (  2342 PWs)   bands (ev):

    -3.8716  -0.5124   2.8391   3.5929   5.9640   5.9668   6.8171

          k = 0.1000 0.1000-0.5000 (  2348 PWs)   bands (ev):

    -2.4899  -2.4892   4.0903   4.0910   4.9126   4.9132   7.2137

          k = 0.1000 0.3000 0.3000 (  2347 PWs)   bands (ev):

    -3.1804  -0.3576   1.0690   3.8023   3.9650   6.6872   7.1450

          k = 0.1000 0.3000-0.5000 (  2324 PWs)   bands (ev):

    -1.8423  -1.8417   1.8739   1.8745   5.2307   5.2313   7.9030

          k = 0.1000-0.5000-0.5000 (  2340 PWs)   bands (ev):

    -1.0112  -1.0108   0.4016   0.4017   6.0060   6.0065   7.1391

          k = 0.3000 0.3000 0.3000 (  2353 PWs)   bands (ev):

    -2.5000  -0.0905   1.7562   1.7562   3.6787   5.1422   5.1423

          k = 0.3000 0.3000-0.5000 (  2348 PWs)   bands (ev):

    -1.2106  -1.2100   2.1385   2.1391   3.1224   3.1229   6.0898

          k = 0.3000-0.5000-0.5000 (  2360 PWs)   bands (ev):

    -0.4341  -0.4337   1.0920   1.0921   3.7115   3.7119   4.5072

          k =-0.5000-0.5000-0.5000 (  2320 PWs)   bands (ev):

     0.1764   0.1768   2.4635   2.4639   2.4669   2.4683   2.4702

          k =-0.1000-0.1000 0.1000 (  2358 PWs)   bands (ev):

    -4.5731   1.2785   2.9239   2.9240   4.9374   7.2247   7.2247

          k =-0.1000 0.1000-0.1000 (  2358 PWs)   bands (ev):

    -4.5731   1.2785   2.9239   2.9240   4.9374   7.2247   7.2247

          k = 0.1000-0.1000-0.1000 (  2358 PWs)   bands (ev):

    -4.5731   1.2785   2.9239   2.9240   4.9374   7.2247   7.2247

          k =-0.1000-0.1000 0.3000 (  2342 PWs)   bands (ev):

    -3.8716  -0.5124   2.8391   3.5929   5.9641   5.9667   6.8171

          k =-0.1000 0.1000-0.3000 (  2342 PWs)   bands (ev):

    -3.8716  -0.5124   2.8391   3.5929   5.9631   5.9678   6.8170

          k = 0.1000-0.1000-0.3000 (  2342 PWs)   bands (ev):

    -3.8716  -0.5124   2.8391   3.5929   5.9629   5.9680   6.8170

          k = 0.3000-0.1000 0.1000 (  2342 PWs)   bands (ev):

    -3.8716  -0.5124   2.8391   3.5929   5.9631   5.9678   6.8170

          k =-0.3000-0.1000-0.1000 (  2342 PWs)   bands (ev):

    -3.8716  -0.5124   2.8391   3.5929   5.9640   5.9668   6.8171

          k = 0.3000 0.1000-0.1000 (  2342 PWs)   bands (ev):

    -3.8716  -0.5124   2.8391   3.5929   5.9641   5.9668   6.8170

          k =-0.3000 0.1000 0.1000 (  2342 PWs)   bands (ev):

    -3.8716  -0.5124   2.8391   3.5929   5.9630   5.9679   6.8171

          k =-0.1000 0.3000 0.1000 (  2342 PWs)   bands (ev):

    -3.8716  -0.5124   2.8391   3.5929   5.9630   5.9679   6.8170

          k =-0.1000-0.3000-0.1000 (  2342 PWs)   bands (ev):

    -3.8716  -0.5124   2.8391   3.5929   5.9641   5.9667   6.8171

          k = 0.1000 0.3000-0.1000 (  2342 PWs)   bands (ev):

    -3.8716  -0.5124   2.8391   3.5929   5.9641   5.9667   6.8171

          k = 0.1000-0.3000 0.1000 (  2342 PWs)   bands (ev):

    -3.8716  -0.5124   2.8391   3.5929   5.9631   5.9678   6.8171

          k =-0.1000 0.1000 0.5000 (  2348 PWs)   bands (ev):

    -2.4899  -2.4892   4.0903   4.0910   4.9126   4.9131   7.2136

          k =-0.5000-0.1000 0.1000 (  2348 PWs)   bands (ev):

    -2.4909  -2.4882   4.0896   4.0917   4.9112   4.9145   7.2134

          k = 0.5000-0.1000-0.1000 (  2348 PWs)   bands (ev):

    -2.4909  -2.4882   4.0896   4.0916   4.9113   4.9145   7.2129

          k =-0.1000-0.5000 0.1000 (  2348 PWs)   bands (ev):

    -2.4922  -2.4869   4.0884   4.0928   4.9097   4.9160   7.2137

          k =-0.1000 0.5000-0.1000 (  2348 PWs)   bands (ev):

    -2.4922  -2.4869   4.0884   4.0928   4.9098   4.9160   7.2121

          k =-0.1000-0.3000 0.3000 (  2347 PWs)   bands (ev):

    -3.1804  -0.3575   1.0690   3.8024   3.9650   6.6872   7.1450

          k =-0.1000 0.3000-0.3000 (  2347 PWs)   bands (ev):

    -3.1804  -0.3575   1.0690   3.8024   3.9650   6.6872   7.1451

          k = 0.1000-0.3000-0.3000 (  2347 PWs)   bands (ev):

    -3.1804  -0.3576   1.0690   3.8023   3.9650   6.6872   7.1450

          k = 0.3000 0.1000-0.3000 (  2347 PWs)   bands (ev):

    -3.1804  -0.3576   1.0690   3.8023   3.9650   6.6872   7.1450

          k =-0.3000-0.1000-0.3000 (  2347 PWs)   bands (ev):

    -3.1804  -0.3576   1.0690   3.8023   3.9650   6.6871   7.1450

          k = 0.3000-0.1000 0.3000 (  2347 PWs)   bands (ev):

    -3.1804  -0.3576   1.0690   3.8023   3.9650   6.6872   7.1451

          k =-0.3000 0.1000 0.3000 (  2347 PWs)   bands (ev):

    -3.1804  -0.3576   1.0690   3.8023   3.9650   6.6872   7.1451

          k = 0.3000-0.3000 0.1000 (  2347 PWs)   bands (ev):

    -3.1804  -0.3576   1.0690   3.8024   3.9650   6.6872   7.1451

          k =-0.3000-0.3000-0.1000 (  2347 PWs)   bands (ev):

    -3.1804  -0.3576   1.0690   3.8023   3.9650   6.6872   7.1450

          k = 0.3000 0.3000-0.1000 (  2347 PWs)   bands (ev):

    -3.1804  -0.3576   1.0690   3.8023   3.9649   6.6872   7.1450

          k =-0.3000 0.3000 0.1000 (  2347 PWs)   bands (ev):

    -3.1804  -0.3576   1.0690   3.8024   3.9650   6.6871   7.1450

          k =-0.1000 0.3000 0.5000 (  2324 PWs)   bands (ev):

    -1.8423  -1.8417   1.8739   1.8745   5.2307   5.2312   7.9029

          k = 0.3000 0.1000 0.5000 (  2324 PWs)   bands (ev):

    -1.8423  -1.8417   1.8739   1.8745   5.2307   5.2312   7.9030

          k = 0.3000-0.1000-0.5000 (  2324 PWs)   bands (ev):

    -1.8423  -1.8417   1.8739   1.8745   5.2307   5.2312   7.9029

          k =-0.5000-0.3000 0.1000 (  2324 PWs)   bands (ev):

    -1.8433  -1.8407   1.8730   1.8754   5.2295   5.2323   7.9031

          k = 0.5000-0.3000-0.1000 (  2324 PWs)   bands (ev):

    -1.8433  -1.8407   1.8730   1.8754   5.2296   5.2323   7.9028

          k =-0.1000-0.5000 0.3000 (  2324 PWs)   bands (ev):

    -1.8445  -1.8394   1.8718   1.8766   5.2283   5.2337   7.9028

          k =-0.1000 0.5000-0.3000 (  2324 PWs)   bands (ev):

    -1.8445  -1.8394   1.8718   1.8766   5.2283   5.2337   7.9027

          k = 0.3000-0.5000 0.1000 (  2324 PWs)   bands (ev):

    -1.8445  -1.8394   1.8718   1.8766   5.2283   5.2336   7.9029

          k = 0.3000 0.5000-0.1000 (  2324 PWs)   bands (ev):

    -1.8445  -1.8394   1.8718   1.8766   5.2282   5.2336   7.9029

          k =-0.5000 0.1000 0.3000 (  2324 PWs)   bands (ev):

    -1.8433  -1.8407   1.8730   1.8754   5.2296   5.2324   7.9031

          k = 0.5000-0.1000 0.3000 (  2324 PWs)   bands (ev):

    -1.8433  -1.8407   1.8730   1.8754   5.2296   5.2323   7.9031

          k =-0.5000 0.1000 0.5000 (  2340 PWs)   bands (ev):

    -1.0112  -1.0108   0.4016   0.4017   6.0062   6.0064   7.1391

          k =-0.5000 0.5000 0.1000 (  2340 PWs)   bands (ev):

    -1.0112  -1.0108   0.4016   0.4017   6.0061   6.0064   7.1392

          k =-0.3000-0.3000 0.3000 (  2353 PWs)   bands (ev):

    -2.5000  -0.0905   1.7562   1.7562   3.6787   5.1422   5.1423

          k =-0.3000 0.3000-0.3000 (  2353 PWs)   bands (ev):

    -2.5000  -0.0905   1.7562   1.7562   3.6788   5.1422   5.1422

          k = 0.3000-0.3000-0.3000 (  2353 PWs)   bands (ev):

    -2.5000  -0.0905   1.7562   1.7562   3.6787   5.1422   5.1423

          k =-0.3000 0.3000 0.5000 (  2348 PWs)   bands (ev):

    -1.2106  -1.2100   2.1385   2.1391   3.1224   3.1229   6.0900

          k =-0.5000-0.3000 0.3000 (  2348 PWs)   bands (ev):

    -1.2115  -1.2091   2.1379   2.1398   3.1210   3.1242   6.0896

          k = 0.5000-0.3000-0.3000 (  2348 PWs)   bands (ev):

    -1.2115  -1.2091   2.1379   2.1397   3.1211   3.1242   6.0903

          k =-0.3000-0.5000 0.3000 (  2348 PWs)   bands (ev):

    -1.2127  -1.2079   2.1369   2.1407   3.1196   3.1257   6.0896

          k =-0.3000 0.5000-0.3000 (  2348 PWs)   bands (ev):

    -1.2127  -1.2079   2.1369   2.1407   3.1196   3.1257   6.0881

          k =-0.5000 0.3000 0.5000 (  2360 PWs)   bands (ev):

    -0.4341  -0.4337   1.0920   1.0921   3.7116   3.7118   4.5072

          k =-0.5000 0.5000 0.3000 (  2360 PWs)   bands (ev):

    -0.4341  -0.4337   1.0920   1.0921   3.7116   3.7118   4.5071

     the Fermi energy is     2.1483 ev

!    total energy              =     -78.85581796 Ry
     Harris-Foulkes estimate   =     -78.85581949 Ry
     estimated scf accuracy    <       0.00000061 Ry

     total all-electron energy =      -971.141379 Ry

     The total energy is the sum of the following terms:

     one-electron contribution =       3.56645661 Ry
     hartree contribution      =       0.10278350 Ry
     xc contribution           =      -4.62917962 Ry
     ewald contribution        =      -8.57905001 Ry
     one-center paw contrib.   =     -69.31804350 Ry
     smearing contrib. (-TS)   =       0.00121507 Ry

     convergence has been achieved in   6 iterations

     Forces acting on atoms (cartesian axes, Ry/au):

     atom    1 type  1   force =     0.00003656    0.00003363   -0.00000895
     atom    2 type  1   force =    -0.00003656   -0.00003363    0.00000895

     Total force =     0.000071     Total SCF correction =     0.000254
     SCF correction compared to forces is large: reduce conv_thr to get better values


     Computing stress (Cartesian axis) and pressure

          total   stress  (Ry/bohr**3)                   (kbar)     P=  -94.58
  -0.00064297   0.00000001  -0.00000005        -94.58      0.00     -0.01
   0.00000001  -0.00064295  -0.00000002          0.00    -94.58     -0.00
  -0.00000005  -0.00000002  -0.00064299         -0.01     -0.00    -94.59


     Writing output data file fe_scf_fcc_2.save/

     init_run     :      0.37s CPU      0.39s WALL (       1 calls)
     electrons    :      2.99s CPU      3.62s WALL (       1 calls)
     forces       :      0.07s CPU      0.07s WALL (       1 calls)
     stress       :      0.19s CPU      0.21s WALL (       1 calls)

     Called by init_run:
     wfcinit      :      0.22s CPU      0.23s WALL (       1 calls)
     potinit      :      0.06s CPU      0.07s WALL (       1 calls)
     hinit0       :      0.08s CPU      0.08s WALL (       1 calls)

     Called by electrons:
     c_bands      :      2.47s CPU      2.99s WALL (       7 calls)
     sum_band     :      0.32s CPU      0.39s WALL (       7 calls)
     v_of_rho     :      0.03s CPU      0.04s WALL (       7 calls)
     newd         :      0.01s CPU      0.01s WALL (       7 calls)
     PAW_pot      :      0.21s CPU      0.25s WALL (       7 calls)
     mix_rho      :      0.00s CPU      0.00s WALL (       7 calls)

     Called by c_bands:
     init_us_2    :      0.11s CPU      0.13s WALL (    1071 calls)
     cegterg      :      2.30s CPU      2.78s WALL (     441 calls)

     Called by sum_band:
     sum_band:bec :      0.00s CPU      0.00s WALL (     441 calls)
     addusdens    :      0.01s CPU      0.01s WALL (       7 calls)

     Called by *egterg:
     h_psi        :      1.72s CPU      2.05s WALL (    1454 calls)
     s_psi        :      0.11s CPU      0.13s WALL (    1454 calls)
     g_psi        :      0.01s CPU      0.01s WALL (     950 calls)
     cdiaghg      :      0.12s CPU      0.14s WALL (    1328 calls)

     Called by h_psi:
     h_psi:pot    :      1.71s CPU      2.04s WALL (    1454 calls)
     h_psi:calbec :      0.21s CPU      0.24s WALL (    1454 calls)
     vloc_psi     :      1.39s CPU      1.66s WALL (    1454 calls)
     add_vuspsi   :      0.11s CPU      0.13s WALL (    1454 calls)

     General routines
     calbec       :      0.35s CPU      0.40s WALL (    2210 calls)
     fft          :      0.03s CPU      0.04s WALL (     103 calls)
     ffts         :      0.00s CPU      0.00s WALL (       7 calls)
     fftw         :      1.49s CPU      1.79s WALL (   19573 calls)

     Parallel routines
     fft_scatt_xy :      0.15s CPU      0.18s WALL (   19683 calls)
     fft_scatt_yz :      0.86s CPU      1.07s WALL (   19683 calls)

     PWSCF        :      4.15s CPU      4.89s WALL


   This run was terminated on:  15:44:41  24Feb2020            

=------------------------------------------------------------------------------=
   JOB DONE.
=------------------------------------------------------------------------------=
