
     Program PWSCF v.6.3 starts on 30Oct2019 at  0:34: 6 

     This program is part of the open-source Quantum ESPRESSO suite
     for quantum simulation of materials; please cite
         "P. Giannozzi et al., J. Phys.:Condens. Matter 21 395502 (2009);
         "P. Giannozzi et al., J. Phys.:Condens. Matter 29 465901 (2017);
          URL http://www.quantum-espresso.org", 
     in publications or presentations arising from this work. More details at
     http://www.quantum-espresso.org/quote

     Parallel version (MPI), running on     1 processors

     MPI processes distributed on     1 nodes
     Reading input from /cloud/Code/python/py_pwscf_converge/src/example2/wd/runpwscf/file_10240.in
Warning: card &IONS ignored
Warning: card ION_DYNAMICS = 'BFGS', ignored
Warning: card / ignored
Warning: card &CELL ignored
Warning: card CELL_DYNAMICS = 'BFGS', ignored
Warning: card CELL_FACTOR = 2.0, ignored
Warning: card PRESS = 0.0, ignored
Warning: card / ignored

     Current dimensions of program PWSCF are:
     Max number of different atomic species (ntypx) = 10
     Max number of k-points (npk) =  40000
     Max angular momentum in pseudopotentials (lmaxx) =  3
               file Al.pbe-nl-kjpaw_psl.1.0.0.UPF: wavefunction(s)  3S 3P renormalized

     Subspace diagonalization in iterative solution of the eigenvalue problem:
     a serial algorithm will be used


     G-vector sticks info
     --------------------
     sticks:   dense  smooth     PW     G-vecs:    dense   smooth      PW
     Sum         385     137     45                 5743     1141     251



     bravais-lattice index     =            0
     lattice parameter (alat)  =       4.0400  a.u.
     unit-cell volume          =      65.9393 (a.u.)^3
     number of atoms/cell      =            2
     number of atomic types    =            1
     number of electrons       =         6.00
     number of Kohn-Sham states=            7
     kinetic-energy cutoff     =      25.0000  Ry
     charge density cutoff     =     300.0000  Ry
     convergence threshold     =      1.0E-06
     mixing beta               =       0.1000
     number of iterations used =           10  TF        mixing
     Exchange-correlation      = SLA PW PBX PBC ( 1  4  3  4 0 0)

     celldm(1)=   4.040000  celldm(2)=   0.000000  celldm(3)=   0.000000
     celldm(4)=   0.000000  celldm(5)=   0.000000  celldm(6)=   0.000000

     crystal axes: (cart. coord. in units of alat)
               a(1) = (   1.000000   0.000000   0.000000 )  
               a(2) = (   0.000000   1.000000   0.000000 )  
               a(3) = (   0.000000   0.000000   1.000000 )  

     reciprocal axes: (cart. coord. in units 2 pi/alat)
               b(1) = (  1.000000  0.000000  0.000000 )  
               b(2) = (  0.000000  1.000000  0.000000 )  
               b(3) = (  0.000000  0.000000  1.000000 )  


     PseudoPot. # 1 for Al read from file:
     /opt/pp/Al.pbe-nl-kjpaw_psl.1.0.0.UPF
     MD5 check sum: 1b67f78b73fe58c7924490f171ce8a1e
     Pseudo is Projector augmented-wave + core cor, Zval =  3.0
     Generated using "atomic" code by A. Dal Corso v.6.3
     Shape of augmentation charge: PSQ
     Using radial grid of 1135 points,  4 beta functions with: 
                l(1) =   0
                l(2) =   0
                l(3) =   1
                l(4) =   1
     Q(r) pseudized with 0 coefficients 


     atomic species   valence    mass     pseudopotential
        Al             3.00    26.98200     Al( 1.00)

     No symmetry found



   Cartesian axes

     site n.     atom                  positions (alat units)
         1           Al  tau(   1) = (  -0.0001235   0.0000359   0.0002572  )
         2           Al  tau(   2) = (   0.5003009   0.4992819   0.5002658  )

     number of k points=    32  Marzari-Vanderbilt smearing, width (Ry)=  0.0200
                       cart. coord. in units 2pi/alat
        k(    1) = (   0.1250000   0.1250000   0.1250000), wk =   0.0625000
        k(    2) = (   0.1250000   0.1250000   0.3750000), wk =   0.0625000
        k(    3) = (   0.1250000   0.3750000   0.3750000), wk =   0.0625000
        k(    4) = (   0.3750000   0.3750000   0.3750000), wk =   0.0625000
        k(    5) = (  -0.1250000  -0.1250000   0.1250000), wk =   0.0625000
        k(    6) = (  -0.1250000   0.1250000  -0.1250000), wk =   0.0625000
        k(    7) = (   0.1250000  -0.1250000  -0.1250000), wk =   0.0625000
        k(    8) = (  -0.1250000  -0.1250000   0.3750000), wk =   0.0625000
        k(    9) = (  -0.1250000   0.1250000  -0.3750000), wk =   0.0625000
        k(   10) = (   0.1250000  -0.1250000  -0.3750000), wk =   0.0625000
        k(   11) = (   0.3750000  -0.1250000   0.1250000), wk =   0.0625000
        k(   12) = (  -0.3750000  -0.1250000  -0.1250000), wk =   0.0625000
        k(   13) = (   0.3750000   0.1250000  -0.1250000), wk =   0.0625000
        k(   14) = (  -0.3750000   0.1250000   0.1250000), wk =   0.0625000
        k(   15) = (  -0.1250000   0.3750000   0.1250000), wk =   0.0625000
        k(   16) = (  -0.1250000  -0.3750000  -0.1250000), wk =   0.0625000
        k(   17) = (   0.1250000   0.3750000  -0.1250000), wk =   0.0625000
        k(   18) = (   0.1250000  -0.3750000   0.1250000), wk =   0.0625000
        k(   19) = (  -0.1250000  -0.3750000   0.3750000), wk =   0.0625000
        k(   20) = (  -0.1250000   0.3750000  -0.3750000), wk =   0.0625000
        k(   21) = (   0.1250000  -0.3750000  -0.3750000), wk =   0.0625000
        k(   22) = (   0.3750000   0.1250000  -0.3750000), wk =   0.0625000
        k(   23) = (  -0.3750000  -0.1250000  -0.3750000), wk =   0.0625000
        k(   24) = (   0.3750000  -0.1250000   0.3750000), wk =   0.0625000
        k(   25) = (  -0.3750000   0.1250000   0.3750000), wk =   0.0625000
        k(   26) = (   0.3750000  -0.3750000   0.1250000), wk =   0.0625000
        k(   27) = (  -0.3750000  -0.3750000  -0.1250000), wk =   0.0625000
        k(   28) = (   0.3750000   0.3750000  -0.1250000), wk =   0.0625000
        k(   29) = (  -0.3750000   0.3750000   0.1250000), wk =   0.0625000
        k(   30) = (  -0.3750000  -0.3750000   0.3750000), wk =   0.0625000
        k(   31) = (  -0.3750000   0.3750000  -0.3750000), wk =   0.0625000
        k(   32) = (   0.3750000  -0.3750000  -0.3750000), wk =   0.0625000

     Dense  grid:     5743 G-vectors     FFT dimensions: (  24,  24,  24)

     Smooth grid:     1141 G-vectors     FFT dimensions: (  15,  15,  15)

     Estimated max dynamical RAM per process >       8.81 MB

     Initial potential from superposition of free atoms

     starting charge    5.99542, renormalised to    6.00000
     Starting wfcs are    8 randomized atomic wfcs
     Checking if some PAW data can be deallocated... 

     total cpu time spent up to now is        0.8 secs

     Self-consistent Calculation

     iteration #  1     ecut=    25.00 Ry     beta= 0.10
     Davidson diagonalization with overlap
     ethr =  1.00E-02,  avg # of iterations =  3.8

     Threshold (ethr) on eigenvalues was too large:
     Diagonalizing with lowered threshold

     Davidson diagonalization with overlap
     ethr =  5.96E-04,  avg # of iterations =  1.0

     total cpu time spent up to now is        1.1 secs

     total energy              =     -76.87143669 Ry
     Harris-Foulkes estimate   =     -76.88311943 Ry
     estimated scf accuracy    <       0.03586161 Ry

     iteration #  2     ecut=    25.00 Ry     beta= 0.10
     Davidson diagonalization with overlap
     ethr =  5.98E-04,  avg # of iterations =  1.0

     total cpu time spent up to now is        1.3 secs

     total energy              =     -76.84088981 Ry
     Harris-Foulkes estimate   =     -76.87147426 Ry
     estimated scf accuracy    <       0.03069248 Ry

     iteration #  3     ecut=    25.00 Ry     beta= 0.10
     Davidson diagonalization with overlap
     ethr =  5.12E-04,  avg # of iterations =  1.9

     total cpu time spent up to now is        1.5 secs

     total energy              =     -76.84223700 Ry
     Harris-Foulkes estimate   =     -76.84400957 Ry
     estimated scf accuracy    <       0.00013727 Ry

     iteration #  4     ecut=    25.00 Ry     beta= 0.10
     Davidson diagonalization with overlap
     ethr =  2.29E-06,  avg # of iterations =  4.9

     total cpu time spent up to now is        1.7 secs

     total energy              =     -76.84038269 Ry
     Harris-Foulkes estimate   =     -76.84235108 Ry
     estimated scf accuracy    <       0.00009041 Ry

     iteration #  5     ecut=    25.00 Ry     beta= 0.10
     Davidson diagonalization with overlap
     ethr =  1.51E-06,  avg # of iterations =  2.0

     total cpu time spent up to now is        1.9 secs

     total energy              =     -76.84037380 Ry
     Harris-Foulkes estimate   =     -76.84041993 Ry
     estimated scf accuracy    <       0.00000459 Ry

     iteration #  6     ecut=    25.00 Ry     beta= 0.10
     Davidson diagonalization with overlap
     ethr =  7.64E-08,  avg # of iterations =  3.0

     total cpu time spent up to now is        2.2 secs

     End of self-consistent calculation

          k = 0.1250 0.1250 0.1250 (   144 PWs)   bands (ev):

     8.6325  25.5317  25.5318  34.8645  40.9668  40.9669  44.7921

          k = 0.1250 0.1250 0.3750 (   138 PWs)   bands (ev):

    12.3749  18.8299  28.8515  35.3636  35.8881  39.9691  43.3961

          k = 0.1250 0.3750 0.3750 (   141 PWs)   bands (ev):

    15.8155  20.9453  23.3436  28.2316  35.8115  37.9018  49.4956

          k = 0.3750 0.3750 0.3750 (   145 PWs)   bands (ev):

    18.9206  23.5570  23.5571  29.1783  29.1989  29.2001  46.3261

          k =-0.1250-0.1250 0.1250 (   144 PWs)   bands (ev):

     8.6325  25.5317  25.5318  34.8645  40.9668  40.9669  44.7921

          k =-0.1250 0.1250-0.1250 (   144 PWs)   bands (ev):

     8.6325  25.5317  25.5318  34.8645  40.9667  40.9668  44.7922

          k = 0.1250-0.1250-0.1250 (   144 PWs)   bands (ev):

     8.6325  25.5317  25.5317  34.8646  40.9667  40.9668  44.7921

          k =-0.1250-0.1250 0.3750 (   138 PWs)   bands (ev):

    12.3749  18.8299  28.8515  35.3636  35.8880  39.9691  43.3961

          k =-0.1250 0.1250-0.3750 (   138 PWs)   bands (ev):

    12.3749  18.8299  28.8514  35.3638  35.8877  39.9691  43.3961

          k = 0.1250-0.1250-0.3750 (   138 PWs)   bands (ev):

    12.3749  18.8299  28.8514  35.3638  35.8878  39.9691  43.3961

          k = 0.3750-0.1250 0.1250 (   138 PWs)   bands (ev):

    12.3749  18.8299  28.8515  35.3637  35.8878  39.9691  43.3961

          k =-0.3750-0.1250-0.1250 (   138 PWs)   bands (ev):

    12.3749  18.8299  28.8514  35.3637  35.8879  39.9692  43.3960

          k = 0.3750 0.1250-0.1250 (   138 PWs)   bands (ev):

    12.3749  18.8299  28.8514  35.3638  35.8878  39.9691  43.3961

          k =-0.3750 0.1250 0.1250 (   138 PWs)   bands (ev):

    12.3749  18.8299  28.8514  35.3637  35.8879  39.9691  43.3961

          k =-0.1250 0.3750 0.1250 (   138 PWs)   bands (ev):

    12.3749  18.8299  28.8514  35.3638  35.8878  39.9691  43.3961

          k =-0.1250-0.3750-0.1250 (   138 PWs)   bands (ev):

    12.3749  18.8299  28.8514  35.3639  35.8877  39.9691  43.3961

          k = 0.1250 0.3750-0.1250 (   138 PWs)   bands (ev):

    12.3749  18.8299  28.8514  35.3639  35.8877  39.9692  43.3960

          k = 0.1250-0.3750 0.1250 (   138 PWs)   bands (ev):

    12.3749  18.8299  28.8514  35.3638  35.8877  39.9691  43.3961

          k =-0.1250-0.3750 0.3750 (   141 PWs)   bands (ev):

    15.8155  20.9453  23.3436  28.2316  35.8115  37.9018  49.4955

          k =-0.1250 0.3750-0.3750 (   141 PWs)   bands (ev):

    15.8155  20.9453  23.3436  28.2316  35.8115  37.9018  49.4956

          k = 0.1250-0.3750-0.3750 (   141 PWs)   bands (ev):

    15.8155  20.9453  23.3436  28.2315  35.8116  37.9018  49.4956

          k = 0.3750 0.1250-0.3750 (   141 PWs)   bands (ev):

    15.8155  20.9453  23.3436  28.2316  35.8115  37.9018  49.4956

          k =-0.3750-0.1250-0.3750 (   141 PWs)   bands (ev):

    15.8155  20.9453  23.3436  28.2316  35.8116  37.9018  49.4955

          k = 0.3750-0.1250 0.3750 (   141 PWs)   bands (ev):

    15.8155  20.9453  23.3436  28.2316  35.8115  37.9018  49.4956

          k =-0.3750 0.1250 0.3750 (   141 PWs)   bands (ev):

    15.8155  20.9453  23.3436  28.2316  35.8116  37.9018  49.4956

          k = 0.3750-0.3750 0.1250 (   141 PWs)   bands (ev):

    15.8155  20.9453  23.3436  28.2315  35.8115  37.9018  49.4956

          k =-0.3750-0.3750-0.1250 (   141 PWs)   bands (ev):

    15.8155  20.9453  23.3436  28.2316  35.8115  37.9018  49.4956

          k = 0.3750 0.3750-0.1250 (   141 PWs)   bands (ev):

    15.8155  20.9453  23.3436  28.2316  35.8115  37.9018  49.4956

          k =-0.3750 0.3750 0.1250 (   141 PWs)   bands (ev):

    15.8155  20.9453  23.3436  28.2315  35.8116  37.9018  49.4956

          k =-0.3750-0.3750 0.3750 (   145 PWs)   bands (ev):

    18.9206  23.5570  23.5571  29.1783  29.1989  29.2001  46.3261

          k =-0.3750 0.3750-0.3750 (   145 PWs)   bands (ev):

    18.9206  23.5570  23.5571  29.1790  29.1989  29.1994  47.6010

          k = 0.3750-0.3750-0.3750 (   145 PWs)   bands (ev):

    18.9206  23.5570  23.5570  29.1790  29.1989  29.1994  46.3261

     the Fermi energy is    28.4773 ev

!    total energy              =     -76.84036451 Ry
     Harris-Foulkes estimate   =     -76.84037762 Ry
     estimated scf accuracy    <       0.00000056 Ry

     total all-electron energy =      -969.125926 Ry

     The total energy is the sum of the following terms:

     one-electron contribution =      16.34800987 Ry
     hartree contribution      =       0.09269810 Ry
     xc contribution           =      -7.03898311 Ry
     ewald contribution        =     -16.21439947 Ry
     one-center paw contrib.   =     -70.02865567 Ry
     smearing contrib. (-TS)   =       0.00096579 Ry

     convergence has been achieved in   6 iterations

     Forces acting on atoms (cartesian axes, Ry/au):

     atom    1 type  1   force =     0.00251132   -0.00451038    0.00006084
     atom    2 type  1   force =    -0.00251132    0.00451038   -0.00006084

     Total force =     0.007301     Total SCF correction =     0.000177


     Computing stress (Cartesian axis) and pressure

          total   stress  (Ry/bohr**3)                   (kbar)     P=10822.27
   0.07356837  -0.00000020   0.00000002      10822.28     -0.03      0.00
  -0.00000020   0.07356807  -0.00000002         -0.03  10822.24     -0.00
   0.00000002  -0.00000002   0.07356848          0.00     -0.00  10822.29


     Writing output data file fe_scf_fcc_2.save/

     init_run     :      0.37s CPU      0.40s WALL (       1 calls)
     electrons    :      1.31s CPU      1.33s WALL (       1 calls)
     forces       :      0.04s CPU      0.04s WALL (       1 calls)
     stress       :      0.09s CPU      0.09s WALL (       1 calls)

     Called by init_run:
     wfcinit      :      0.03s CPU      0.02s WALL (       1 calls)
     potinit      :      0.12s CPU      0.14s WALL (       1 calls)
     hinit0       :      0.21s CPU      0.22s WALL (       1 calls)

     Called by electrons:
     c_bands      :      0.38s CPU      0.40s WALL (       7 calls)
     sum_band     :      0.09s CPU      0.10s WALL (       7 calls)
     v_of_rho     :      0.08s CPU      0.09s WALL (       7 calls)
     newd         :      0.04s CPU      0.05s WALL (       7 calls)
     PAW_pot      :      0.81s CPU      0.83s WALL (       7 calls)
     mix_rho      :      0.02s CPU      0.01s WALL (       7 calls)

     Called by c_bands:
     init_us_2    :      0.03s CPU      0.02s WALL (     544 calls)
     cegterg      :      0.36s CPU      0.37s WALL (     224 calls)

     Called by sum_band:
     sum_band:bec :      0.00s CPU      0.00s WALL (     224 calls)
     addusdens    :      0.04s CPU      0.04s WALL (       7 calls)

     Called by *egterg:
     h_psi        :      0.24s CPU      0.25s WALL (     820 calls)
     s_psi        :      0.00s CPU      0.01s WALL (     820 calls)
     g_psi        :      0.00s CPU      0.00s WALL (     564 calls)
     cdiaghg      :      0.06s CPU      0.08s WALL (     756 calls)

     Called by h_psi:
     h_psi:pot    :      0.24s CPU      0.25s WALL (     820 calls)
     h_psi:calbec :      0.02s CPU      0.01s WALL (     820 calls)
     vloc_psi     :      0.20s CPU      0.22s WALL (     820 calls)
     add_vuspsi   :      0.02s CPU      0.01s WALL (     820 calls)

     General routines
     calbec       :      0.02s CPU      0.02s WALL (    1204 calls)
     fft          :      0.10s CPU      0.07s WALL (     116 calls)
     ffts         :      0.00s CPU      0.00s WALL (      14 calls)
     fftw         :      0.21s CPU      0.21s WALL (   10384 calls)
     interpolate  :      0.01s CPU      0.00s WALL (       7 calls)

     Parallel routines

     PWSCF        :     2.22s CPU         2.29s WALL


   This run was terminated on:   0:34: 9  30Oct2019            

=------------------------------------------------------------------------------=
   JOB DONE.
=------------------------------------------------------------------------------=
