
     Program PWSCF v.6.4.1 starts on 24Feb2020 at 15:47:23 

     This program is part of the open-source Quantum ESPRESSO suite
     for quantum simulation of materials; please cite
         "P. Giannozzi et al., J. Phys.:Condens. Matter 21 395502 (2009);
         "P. Giannozzi et al., J. Phys.:Condens. Matter 29 465901 (2017);
          URL http://www.quantum-espresso.org", 
     in publications or presentations arising from this work. More details at
     http://www.quantum-espresso.org/quote

     Parallel version (MPI), running on     4 processors

     MPI processes distributed on     1 nodes
     R & G space division:  proc/nbgrp/npool/nimage =       4
     Reading input from /cloud/Code/python/py_pwscf_converge/src/example2/wd/runpwscf/file_10081.in
Warning: card &IONS ignored
Warning: card ION_DYNAMICS = 'BFGS', ignored
Warning: card / ignored
Warning: card &CELL ignored
Warning: card CELL_DYNAMICS = 'BFGS', ignored
Warning: card CELL_FACTOR = 2.0, ignored
Warning: card PRESS = 0.0, ignored
Warning: card / ignored

     Current dimensions of program PWSCF are:
     Max number of different atomic species (ntypx) = 10
     Max number of k-points (npk) =  40000
     Max angular momentum in pseudopotentials (lmaxx) =  3
               file Al.pbe-nl-kjpaw_psl.1.0.0.UPF: wavefunction(s)  3S 3P renormalized

     Subspace diagonalization in iterative solution of the eigenvalue problem:
     a serial algorithm will be used


     Parallelization info
     --------------------
     sticks:   dense  smooth     PW     G-vecs:    dense   smooth      PW
     Min         164     164    127                 3132     3132    2183
     Max         165     165    128                 3134     3134    2184
     Sum         657     657    509                12533    12533    8733



     bravais-lattice index     =            0
     lattice parameter (alat)  =       7.6356  a.u.
     unit-cell volume          =     445.1737 (a.u.)^3
     number of atoms/cell      =            2
     number of atomic types    =            1
     number of electrons       =         6.00
     number of Kohn-Sham states=            7
     kinetic-energy cutoff     =     100.0000  Ry
     charge density cutoff     =     140.0000  Ry
     convergence threshold     =      1.0E-06
     mixing beta               =       0.1000
     number of iterations used =           10  TF        mixing
     Exchange-correlation      = SLA PW PBX PBC ( 1  4  3  4 0 0)

     celldm(1)=   7.635600  celldm(2)=   0.000000  celldm(3)=   0.000000
     celldm(4)=   0.000000  celldm(5)=   0.000000  celldm(6)=   0.000000

     crystal axes: (cart. coord. in units of alat)
               a(1) = (   1.000000   0.000000   0.000000 )  
               a(2) = (   0.000000   1.000000   0.000000 )  
               a(3) = (   0.000000   0.000000   1.000000 )  

     reciprocal axes: (cart. coord. in units 2 pi/alat)
               b(1) = (  1.000000  0.000000  0.000000 )  
               b(2) = (  0.000000  1.000000  0.000000 )  
               b(3) = (  0.000000  0.000000  1.000000 )  


     PseudoPot. # 1 for Al read from file:
     /opt/pp/Al.pbe-nl-kjpaw_psl.1.0.0.UPF
     MD5 check sum: 1b67f78b73fe58c7924490f171ce8a1e
     Pseudo is Projector augmented-wave + core cor, Zval =  3.0
     Generated using "atomic" code by A. Dal Corso v.6.3
     Shape of augmentation charge: PSQ
     Using radial grid of 1135 points,  4 beta functions with: 
                l(1) =   0
                l(2) =   0
                l(3) =   1
                l(4) =   1
     Q(r) pseudized with 0 coefficients 


     atomic species   valence    mass     pseudopotential
        Al             3.00    26.98200     Al( 1.00)

     No symmetry found



   Cartesian axes

     site n.     atom                  positions (alat units)
         1           Al  tau(   1) = (  -0.0000654   0.0000190   0.0001361  )
         2           Al  tau(   2) = (   0.5001592   0.4996200   0.5001406  )

     number of k points=    32  Marzari-Vanderbilt smearing, width (Ry)=  0.0200
                       cart. coord. in units 2pi/alat
        k(    1) = (   0.1250000   0.1250000   0.1250000), wk =   0.0625000
        k(    2) = (   0.1250000   0.1250000   0.3750000), wk =   0.0625000
        k(    3) = (   0.1250000   0.3750000   0.3750000), wk =   0.0625000
        k(    4) = (   0.3750000   0.3750000   0.3750000), wk =   0.0625000
        k(    5) = (  -0.1250000  -0.1250000   0.1250000), wk =   0.0625000
        k(    6) = (  -0.1250000   0.1250000  -0.1250000), wk =   0.0625000
        k(    7) = (   0.1250000  -0.1250000  -0.1250000), wk =   0.0625000
        k(    8) = (  -0.1250000  -0.1250000   0.3750000), wk =   0.0625000
        k(    9) = (  -0.1250000   0.1250000  -0.3750000), wk =   0.0625000
        k(   10) = (   0.1250000  -0.1250000  -0.3750000), wk =   0.0625000
        k(   11) = (   0.3750000  -0.1250000   0.1250000), wk =   0.0625000
        k(   12) = (  -0.3750000  -0.1250000  -0.1250000), wk =   0.0625000
        k(   13) = (   0.3750000   0.1250000  -0.1250000), wk =   0.0625000
        k(   14) = (  -0.3750000   0.1250000   0.1250000), wk =   0.0625000
        k(   15) = (  -0.1250000   0.3750000   0.1250000), wk =   0.0625000
        k(   16) = (  -0.1250000  -0.3750000  -0.1250000), wk =   0.0625000
        k(   17) = (   0.1250000   0.3750000  -0.1250000), wk =   0.0625000
        k(   18) = (   0.1250000  -0.3750000   0.1250000), wk =   0.0625000
        k(   19) = (  -0.1250000  -0.3750000   0.3750000), wk =   0.0625000
        k(   20) = (  -0.1250000   0.3750000  -0.3750000), wk =   0.0625000
        k(   21) = (   0.1250000  -0.3750000  -0.3750000), wk =   0.0625000
        k(   22) = (   0.3750000   0.1250000  -0.3750000), wk =   0.0625000
        k(   23) = (  -0.3750000  -0.1250000  -0.3750000), wk =   0.0625000
        k(   24) = (   0.3750000  -0.1250000   0.3750000), wk =   0.0625000
        k(   25) = (  -0.3750000   0.1250000   0.3750000), wk =   0.0625000
        k(   26) = (   0.3750000  -0.3750000   0.1250000), wk =   0.0625000
        k(   27) = (  -0.3750000  -0.3750000  -0.1250000), wk =   0.0625000
        k(   28) = (   0.3750000   0.3750000  -0.1250000), wk =   0.0625000
        k(   29) = (  -0.3750000   0.3750000   0.1250000), wk =   0.0625000
        k(   30) = (  -0.3750000  -0.3750000   0.3750000), wk =   0.0625000
        k(   31) = (  -0.3750000   0.3750000  -0.3750000), wk =   0.0625000
        k(   32) = (   0.3750000  -0.3750000  -0.3750000), wk =   0.0625000

     Dense  grid:    12533 G-vectors     FFT dimensions: (  30,  30,  30)

     Estimated max dynamical RAM per process >      11.85 MB

     Estimated total dynamical RAM >      47.38 MB

     Initial potential from superposition of free atoms

     starting charge    5.99542, renormalised to    6.00000
     Starting wfcs are    8 randomized atomic wfcs
     Checking if some PAW data can be deallocated... 

     total cpu time spent up to now is        0.8 secs

     Self-consistent Calculation

     iteration #  1     ecut=   100.00 Ry     beta= 0.10
     Davidson diagonalization with overlap
     ethr =  1.00E-02,  avg # of iterations =  3.0

     Threshold (ethr) on eigenvalues was too large:
     Diagonalizing with lowered threshold

     Davidson diagonalization with overlap
     ethr =  1.39E-04,  avg # of iterations =  2.7

     total cpu time spent up to now is        2.0 secs

     total energy              =     -78.84838233 Ry
     Harris-Foulkes estimate   =     -78.84867581 Ry
     estimated scf accuracy    <       0.00800617 Ry

     iteration #  2     ecut=   100.00 Ry     beta= 0.10
     Davidson diagonalization with overlap
     ethr =  1.33E-04,  avg # of iterations =  1.0

     total cpu time spent up to now is        2.5 secs

     total energy              =     -78.84620619 Ry
     Harris-Foulkes estimate   =     -78.84841878 Ry
     estimated scf accuracy    <       0.00701983 Ry

     iteration #  3     ecut=   100.00 Ry     beta= 0.10
     Davidson diagonalization with overlap
     ethr =  1.17E-04,  avg # of iterations =  1.0

     total cpu time spent up to now is        2.9 secs

     total energy              =     -78.84652674 Ry
     Harris-Foulkes estimate   =     -78.84660611 Ry
     estimated scf accuracy    <       0.00004894 Ry

     iteration #  4     ecut=   100.00 Ry     beta= 0.10
     Davidson diagonalization with overlap
     ethr =  8.16E-07,  avg # of iterations =  3.5

     total cpu time spent up to now is        3.7 secs

     total energy              =     -78.84650362 Ry
     Harris-Foulkes estimate   =     -78.84657261 Ry
     estimated scf accuracy    <       0.00001954 Ry

     iteration #  5     ecut=   100.00 Ry     beta= 0.10
     Davidson diagonalization with overlap
     ethr =  3.26E-07,  avg # of iterations =  2.0

     total cpu time spent up to now is        4.2 secs

     total energy              =     -78.84648871 Ry
     Harris-Foulkes estimate   =     -78.84650832 Ry
     estimated scf accuracy    <       0.00004337 Ry

     iteration #  6     ecut=   100.00 Ry     beta= 0.10
     Davidson diagonalization with overlap
     ethr =  3.26E-07,  avg # of iterations =  2.0

     total cpu time spent up to now is        4.8 secs

     total energy              =     -78.84649204 Ry
     Harris-Foulkes estimate   =     -78.84649252 Ry
     estimated scf accuracy    <       0.00000137 Ry

     iteration #  7     ecut=   100.00 Ry     beta= 0.10
     Davidson diagonalization with overlap
     ethr =  2.28E-08,  avg # of iterations =  1.0

     total cpu time spent up to now is        5.2 secs

     End of self-consistent calculation

          k = 0.1250 0.1250 0.1250 (  7487 PWs)   bands (ev):

    -4.4252   1.0106   2.7010   2.7010   5.4538   7.3970   7.7333

          k = 0.1250 0.1250 0.3750 (  7532 PWs)   bands (ev):

    -3.3346  -1.2259   2.9074   3.7503   4.8832   5.8013   6.8321

          k = 0.1250 0.3750 0.3750 (  7513 PWs)   bands (ev):

    -2.2803  -0.7131   0.7118   2.2461   4.4307   5.9924   7.0171

          k = 0.3750 0.3750 0.3750 (  7526 PWs)   bands (ev):

    -1.2684  -0.1185   1.7876   1.7876   2.5359   3.9200   3.9200

          k =-0.1250-0.1250 0.1250 (  7487 PWs)   bands (ev):

    -4.4252   1.0106   2.7010   2.7010   5.4539   7.3971   7.7333

          k =-0.1250 0.1250-0.1250 (  7487 PWs)   bands (ev):

    -4.4252   1.0106   2.7010   2.7010   5.4539   7.3972   7.7333

          k = 0.1250-0.1250-0.1250 (  7487 PWs)   bands (ev):

    -4.4252   1.0106   2.7010   2.7010   5.4539   7.3972   7.7334

          k =-0.1250-0.1250 0.3750 (  7532 PWs)   bands (ev):

    -3.3346  -1.2259   2.9074   3.7503   4.8832   5.8013   6.8322

          k =-0.1250 0.1250-0.3750 (  7532 PWs)   bands (ev):

    -3.3346  -1.2259   2.9074   3.7503   4.8832   5.8013   6.8322

          k = 0.1250-0.1250-0.3750 (  7532 PWs)   bands (ev):

    -3.3346  -1.2259   2.9074   3.7503   4.8832   5.8013   6.8322

          k = 0.3750-0.1250 0.1250 (  7532 PWs)   bands (ev):

    -3.3346  -1.2259   2.9074   3.7503   4.8833   5.8012   6.8322

          k =-0.3750-0.1250-0.1250 (  7532 PWs)   bands (ev):

    -3.3346  -1.2259   2.9074   3.7503   4.8832   5.8013   6.8321

          k = 0.3750 0.1250-0.1250 (  7532 PWs)   bands (ev):

    -3.3346  -1.2259   2.9074   3.7503   4.8832   5.8012   6.8322

          k =-0.3750 0.1250 0.1250 (  7532 PWs)   bands (ev):

    -3.3346  -1.2259   2.9074   3.7503   4.8832   5.8013   6.8322

          k =-0.1250 0.3750 0.1250 (  7532 PWs)   bands (ev):

    -3.3346  -1.2259   2.9074   3.7503   4.8832   5.8013   6.8322

          k =-0.1250-0.3750-0.1250 (  7532 PWs)   bands (ev):

    -3.3346  -1.2259   2.9074   3.7503   4.8832   5.8013   6.8321

          k = 0.1250 0.3750-0.1250 (  7532 PWs)   bands (ev):

    -3.3346  -1.2259   2.9074   3.7503   4.8832   5.8013   6.8322

          k = 0.1250-0.3750 0.1250 (  7532 PWs)   bands (ev):

    -3.3346  -1.2259   2.9074   3.7503   4.8833   5.8013   6.8322

          k =-0.1250-0.3750 0.3750 (  7513 PWs)   bands (ev):

    -2.2803  -0.7130   0.7117   2.2461   4.4307   5.9924   7.0170

          k =-0.1250 0.3750-0.3750 (  7513 PWs)   bands (ev):

    -2.2803  -0.7130   0.7117   2.2461   4.4307   5.9924   7.0170

          k = 0.1250-0.3750-0.3750 (  7513 PWs)   bands (ev):

    -2.2803  -0.7131   0.7118   2.2461   4.4307   5.9924   7.0171

          k = 0.3750 0.1250-0.3750 (  7513 PWs)   bands (ev):

    -2.2803  -0.7131   0.7118   2.2461   4.4307   5.9924   7.0170

          k =-0.3750-0.1250-0.3750 (  7513 PWs)   bands (ev):

    -2.2803  -0.7130   0.7118   2.2461   4.4307   5.9924   7.0170

          k = 0.3750-0.1250 0.3750 (  7513 PWs)   bands (ev):

    -2.2803  -0.7130   0.7118   2.2461   4.4307   5.9924   7.0170

          k =-0.3750 0.1250 0.3750 (  7513 PWs)   bands (ev):

    -2.2803  -0.7131   0.7118   2.2461   4.4307   5.9924   7.0170

          k = 0.3750-0.3750 0.1250 (  7513 PWs)   bands (ev):

    -2.2803  -0.7130   0.7118   2.2462   4.4307   5.9924   7.0170

          k =-0.3750-0.3750-0.1250 (  7513 PWs)   bands (ev):

    -2.2803  -0.7131   0.7118   2.2461   4.4307   5.9924   7.0171

          k = 0.3750 0.3750-0.1250 (  7513 PWs)   bands (ev):

    -2.2803  -0.7131   0.7118   2.2461   4.4306   5.9924   7.0171

          k =-0.3750 0.3750 0.1250 (  7513 PWs)   bands (ev):

    -2.2803  -0.7130   0.7118   2.2461   4.4307   5.9924   7.0170

          k =-0.3750-0.3750 0.3750 (  7526 PWs)   bands (ev):

    -1.2684  -0.1185   1.7876   1.7876   2.5359   3.9200   3.9200

          k =-0.3750 0.3750-0.3750 (  7526 PWs)   bands (ev):

    -1.2684  -0.1185   1.7876   1.7876   2.5359   3.9200   3.9200

          k = 0.3750-0.3750-0.3750 (  7526 PWs)   bands (ev):

    -1.2684  -0.1185   1.7876   1.7876   2.5359   3.9200   3.9200

     the Fermi energy is     2.4395 ev

!    total energy              =     -78.84649045 Ry
     Harris-Foulkes estimate   =     -78.84649212 Ry
     estimated scf accuracy    <       0.00000037 Ry

     total all-electron energy =      -971.132051 Ry

     The total energy is the sum of the following terms:

     one-electron contribution =       3.57732309 Ry
     hartree contribution      =       0.10227380 Ry
     xc contribution           =      -4.62864113 Ry
     ewald contribution        =      -8.57905003 Ry
     one-center paw contrib.   =     -69.31766809 Ry
     smearing contrib. (-TS)   =      -0.00072809 Ry

     convergence has been achieved in   7 iterations

     Forces acting on atoms (cartesian axes, Ry/au):

     atom    1 type  1   force =     0.00002204   -0.00001317    0.00000232
     atom    2 type  1   force =    -0.00002204    0.00001317   -0.00000232

     Total force =     0.000036     Total SCF correction =     0.000112
     SCF correction compared to forces is large: reduce conv_thr to get better values


     Computing stress (Cartesian axis) and pressure

          total   stress  (Ry/bohr**3)                   (kbar)     P=  -93.06
  -0.00063264  -0.00000001   0.00000000        -93.06     -0.00      0.00
  -0.00000001  -0.00063264  -0.00000002         -0.00    -93.06     -0.00
   0.00000000  -0.00000002  -0.00063263          0.00     -0.00    -93.06


     Writing output data file fe_scf_fcc_2.save/

     init_run     :      0.31s CPU      0.32s WALL (       1 calls)
     electrons    :      4.19s CPU      4.46s WALL (       1 calls)
     forces       :      0.10s CPU      0.10s WALL (       1 calls)
     stress       :      0.27s CPU      0.27s WALL (       1 calls)

     Called by init_run:
     wfcinit      :      0.20s CPU      0.21s WALL (       1 calls)
     potinit      :      0.03s CPU      0.04s WALL (       1 calls)
     hinit0       :      0.07s CPU      0.07s WALL (       1 calls)

     Called by electrons:
     c_bands      :      3.47s CPU      3.68s WALL (       8 calls)
     sum_band     :      0.50s CPU      0.54s WALL (       8 calls)
     v_of_rho     :      0.04s CPU      0.04s WALL (       8 calls)
     newd         :      0.02s CPU      0.02s WALL (       8 calls)
     PAW_pot      :      0.19s CPU      0.21s WALL (       8 calls)
     mix_rho      :      0.00s CPU      0.00s WALL (       8 calls)

     Called by c_bands:
     init_us_2    :      0.20s CPU      0.21s WALL (     608 calls)
     cegterg      :      3.21s CPU      3.41s WALL (     256 calls)

     Called by sum_band:
     sum_band:bec :      0.00s CPU      0.00s WALL (     256 calls)
     addusdens    :      0.02s CPU      0.02s WALL (       8 calls)

     Called by *egterg:
     h_psi        :      2.19s CPU      2.31s WALL (     810 calls)
     s_psi        :      0.21s CPU      0.23s WALL (     810 calls)
     g_psi        :      0.02s CPU      0.02s WALL (     522 calls)
     cdiaghg      :      0.08s CPU      0.09s WALL (     746 calls)

     Called by h_psi:
     h_psi:pot    :      2.16s CPU      2.28s WALL (     810 calls)
     h_psi:calbec :      0.33s CPU      0.35s WALL (     810 calls)
     vloc_psi     :      1.61s CPU      1.70s WALL (     810 calls)
     add_vuspsi   :      0.22s CPU      0.23s WALL (     810 calls)

     General routines
     calbec       :      0.51s CPU      0.54s WALL (    1226 calls)
     fft          :      0.02s CPU      0.03s WALL (     114 calls)
     ffts         :      0.00s CPU      0.00s WALL (       8 calls)
     fftw         :      1.75s CPU      1.86s WALL (   11262 calls)

     Parallel routines
     fft_scatt_xy :      0.16s CPU      0.17s WALL (   11384 calls)
     fft_scatt_yz :      0.75s CPU      0.80s WALL (   11384 calls)

     PWSCF        :      5.33s CPU      5.66s WALL


   This run was terminated on:  15:47:28  24Feb2020            

=------------------------------------------------------------------------------=
   JOB DONE.
=------------------------------------------------------------------------------=
