
     Program PWSCF v.6.4.1 starts on 24Feb2020 at 15:55:15 

     This program is part of the open-source Quantum ESPRESSO suite
     for quantum simulation of materials; please cite
         "P. Giannozzi et al., J. Phys.:Condens. Matter 21 395502 (2009);
         "P. Giannozzi et al., J. Phys.:Condens. Matter 29 465901 (2017);
          URL http://www.quantum-espresso.org", 
     in publications or presentations arising from this work. More details at
     http://www.quantum-espresso.org/quote

     Parallel version (MPI), running on     4 processors

     MPI processes distributed on     1 nodes
     R & G space division:  proc/nbgrp/npool/nimage =       4
     Reading input from /cloud/Code/python/py_pwscf_converge/src/example2/wd/runpwscf/file_10172.in
Warning: card &IONS ignored
Warning: card ION_DYNAMICS = 'BFGS', ignored
Warning: card / ignored
Warning: card &CELL ignored
Warning: card CELL_DYNAMICS = 'BFGS', ignored
Warning: card CELL_FACTOR = 2.0, ignored
Warning: card PRESS = 0.0, ignored
Warning: card / ignored

     Current dimensions of program PWSCF are:
     Max number of different atomic species (ntypx) = 10
     Max number of k-points (npk) =  40000
     Max angular momentum in pseudopotentials (lmaxx) =  3
               file Al.pbe-nl-kjpaw_psl.1.0.0.UPF: wavefunction(s)  3S 3P renormalized

     Subspace diagonalization in iterative solution of the eigenvalue problem:
     a serial algorithm will be used


     Parallelization info
     --------------------
     sticks:   dense  smooth     PW     G-vecs:    dense   smooth      PW
     Min         300     300     96                 7858     7858    1434
     Max         301     301     97                 7863     7863    1437
     Sum        1201    1201    385                31439    31439    5743



     bravais-lattice index     =            0
     lattice parameter (alat)  =       7.6356  a.u.
     unit-cell volume          =     445.1737 (a.u.)^3
     number of atoms/cell      =            2
     number of atomic types    =            1
     number of electrons       =         6.00
     number of Kohn-Sham states=            7
     kinetic-energy cutoff     =      75.0000  Ry
     charge density cutoff     =     260.0000  Ry
     convergence threshold     =      1.0E-06
     mixing beta               =       0.1000
     number of iterations used =           10  TF        mixing
     Exchange-correlation      = SLA PW PBX PBC ( 1  4  3  4 0 0)

     celldm(1)=   7.635600  celldm(2)=   0.000000  celldm(3)=   0.000000
     celldm(4)=   0.000000  celldm(5)=   0.000000  celldm(6)=   0.000000

     crystal axes: (cart. coord. in units of alat)
               a(1) = (   1.000000   0.000000   0.000000 )  
               a(2) = (   0.000000   1.000000   0.000000 )  
               a(3) = (   0.000000   0.000000   1.000000 )  

     reciprocal axes: (cart. coord. in units 2 pi/alat)
               b(1) = (  1.000000  0.000000  0.000000 )  
               b(2) = (  0.000000  1.000000  0.000000 )  
               b(3) = (  0.000000  0.000000  1.000000 )  


     PseudoPot. # 1 for Al read from file:
     /opt/pp/Al.pbe-nl-kjpaw_psl.1.0.0.UPF
     MD5 check sum: 1b67f78b73fe58c7924490f171ce8a1e
     Pseudo is Projector augmented-wave + core cor, Zval =  3.0
     Generated using "atomic" code by A. Dal Corso v.6.3
     Shape of augmentation charge: PSQ
     Using radial grid of 1135 points,  4 beta functions with: 
                l(1) =   0
                l(2) =   0
                l(3) =   1
                l(4) =   1
     Q(r) pseudized with 0 coefficients 


     atomic species   valence    mass     pseudopotential
        Al             3.00    26.98200     Al( 1.00)

     No symmetry found



   Cartesian axes

     site n.     atom                  positions (alat units)
         1           Al  tau(   1) = (  -0.0000654   0.0000190   0.0001361  )
         2           Al  tau(   2) = (   0.5001592   0.4996200   0.5001406  )

     number of k points=    32  Marzari-Vanderbilt smearing, width (Ry)=  0.0200
                       cart. coord. in units 2pi/alat
        k(    1) = (   0.1250000   0.1250000   0.1250000), wk =   0.0625000
        k(    2) = (   0.1250000   0.1250000   0.3750000), wk =   0.0625000
        k(    3) = (   0.1250000   0.3750000   0.3750000), wk =   0.0625000
        k(    4) = (   0.3750000   0.3750000   0.3750000), wk =   0.0625000
        k(    5) = (  -0.1250000  -0.1250000   0.1250000), wk =   0.0625000
        k(    6) = (  -0.1250000   0.1250000  -0.1250000), wk =   0.0625000
        k(    7) = (   0.1250000  -0.1250000  -0.1250000), wk =   0.0625000
        k(    8) = (  -0.1250000  -0.1250000   0.3750000), wk =   0.0625000
        k(    9) = (  -0.1250000   0.1250000  -0.3750000), wk =   0.0625000
        k(   10) = (   0.1250000  -0.1250000  -0.3750000), wk =   0.0625000
        k(   11) = (   0.3750000  -0.1250000   0.1250000), wk =   0.0625000
        k(   12) = (  -0.3750000  -0.1250000  -0.1250000), wk =   0.0625000
        k(   13) = (   0.3750000   0.1250000  -0.1250000), wk =   0.0625000
        k(   14) = (  -0.3750000   0.1250000   0.1250000), wk =   0.0625000
        k(   15) = (  -0.1250000   0.3750000   0.1250000), wk =   0.0625000
        k(   16) = (  -0.1250000  -0.3750000  -0.1250000), wk =   0.0625000
        k(   17) = (   0.1250000   0.3750000  -0.1250000), wk =   0.0625000
        k(   18) = (   0.1250000  -0.3750000   0.1250000), wk =   0.0625000
        k(   19) = (  -0.1250000  -0.3750000   0.3750000), wk =   0.0625000
        k(   20) = (  -0.1250000   0.3750000  -0.3750000), wk =   0.0625000
        k(   21) = (   0.1250000  -0.3750000  -0.3750000), wk =   0.0625000
        k(   22) = (   0.3750000   0.1250000  -0.3750000), wk =   0.0625000
        k(   23) = (  -0.3750000  -0.1250000  -0.3750000), wk =   0.0625000
        k(   24) = (   0.3750000  -0.1250000   0.3750000), wk =   0.0625000
        k(   25) = (  -0.3750000   0.1250000   0.3750000), wk =   0.0625000
        k(   26) = (   0.3750000  -0.3750000   0.1250000), wk =   0.0625000
        k(   27) = (  -0.3750000  -0.3750000  -0.1250000), wk =   0.0625000
        k(   28) = (   0.3750000   0.3750000  -0.1250000), wk =   0.0625000
        k(   29) = (  -0.3750000   0.3750000   0.1250000), wk =   0.0625000
        k(   30) = (  -0.3750000  -0.3750000   0.3750000), wk =   0.0625000
        k(   31) = (  -0.3750000   0.3750000  -0.3750000), wk =   0.0625000
        k(   32) = (   0.3750000  -0.3750000  -0.3750000), wk =   0.0625000

     Dense  grid:    31439 G-vectors     FFT dimensions: (  40,  40,  40)

     Estimated max dynamical RAM per process >      15.89 MB

     Estimated total dynamical RAM >      63.56 MB

     Initial potential from superposition of free atoms

     starting charge    5.99542, renormalised to    6.00000
     Starting wfcs are    8 randomized atomic wfcs
     Checking if some PAW data can be deallocated... 

     total cpu time spent up to now is        0.9 secs

     Self-consistent Calculation

     iteration #  1     ecut=    75.00 Ry     beta= 0.10
     Davidson diagonalization with overlap
     ethr =  1.00E-02,  avg # of iterations =  3.1

     Threshold (ethr) on eigenvalues was too large:
     Diagonalizing with lowered threshold

     Davidson diagonalization with overlap
     ethr =  1.37E-04,  avg # of iterations =  2.4

     total cpu time spent up to now is        2.2 secs

     total energy              =     -78.84838862 Ry
     Harris-Foulkes estimate   =     -78.84868216 Ry
     estimated scf accuracy    <       0.00801551 Ry

     iteration #  2     ecut=    75.00 Ry     beta= 0.10
     Davidson diagonalization with overlap
     ethr =  1.34E-04,  avg # of iterations =  1.0

     total cpu time spent up to now is        2.6 secs

     total energy              =     -78.84620730 Ry
     Harris-Foulkes estimate   =     -78.84842074 Ry
     estimated scf accuracy    <       0.00702062 Ry

     iteration #  3     ecut=    75.00 Ry     beta= 0.10
     Davidson diagonalization with overlap
     ethr =  1.17E-04,  avg # of iterations =  1.0

     total cpu time spent up to now is        3.1 secs

     total energy              =     -78.84651767 Ry
     Harris-Foulkes estimate   =     -78.84660046 Ry
     estimated scf accuracy    <       0.00004348 Ry

     iteration #  4     ecut=    75.00 Ry     beta= 0.10
     Davidson diagonalization with overlap
     ethr =  7.25E-07,  avg # of iterations =  3.5

     total cpu time spent up to now is        3.9 secs

     total energy              =     -78.84650136 Ry
     Harris-Foulkes estimate   =     -78.84656291 Ry
     estimated scf accuracy    <       0.00001857 Ry

     iteration #  5     ecut=    75.00 Ry     beta= 0.10
     Davidson diagonalization with overlap
     ethr =  3.10E-07,  avg # of iterations =  2.0

     total cpu time spent up to now is        4.4 secs

     total energy              =     -78.84649073 Ry
     Harris-Foulkes estimate   =     -78.84650490 Ry
     estimated scf accuracy    <       0.00003467 Ry

     iteration #  6     ecut=    75.00 Ry     beta= 0.10
     Davidson diagonalization with overlap
     ethr =  3.10E-07,  avg # of iterations =  2.0

     total cpu time spent up to now is        5.0 secs

     total energy              =     -78.84649270 Ry
     Harris-Foulkes estimate   =     -78.84649377 Ry
     estimated scf accuracy    <       0.00000105 Ry

     iteration #  7     ecut=    75.00 Ry     beta= 0.10
     Davidson diagonalization with overlap
     ethr =  1.75E-08,  avg # of iterations =  1.1

     total cpu time spent up to now is        5.5 secs

     End of self-consistent calculation

          k = 0.1250 0.1250 0.1250 (  4881 PWs)   bands (ev):

    -4.4253   1.0104   2.7009   2.7009   5.4537   7.3969   7.7333

          k = 0.1250 0.1250 0.3750 (  4893 PWs)   bands (ev):

    -3.3347  -1.2260   2.9073   3.7502   4.8831   5.8012   6.8320

          k = 0.1250 0.3750 0.3750 (  4877 PWs)   bands (ev):

    -2.2804  -0.7132   0.7117   2.2460   4.4306   5.9923   7.0170

          k = 0.3750 0.3750 0.3750 (  4866 PWs)   bands (ev):

    -1.2686  -0.1187   1.7875   1.7875   2.5357   3.9199   3.9199

          k =-0.1250-0.1250 0.1250 (  4881 PWs)   bands (ev):

    -4.4253   1.0105   2.7009   2.7009   5.4537   7.3969   7.7332

          k =-0.1250 0.1250-0.1250 (  4881 PWs)   bands (ev):

    -4.4253   1.0105   2.7009   2.7009   5.4538   7.3969   7.7332

          k = 0.1250-0.1250-0.1250 (  4881 PWs)   bands (ev):

    -4.4253   1.0105   2.7009   2.7009   5.4537   7.3969   7.7332

          k =-0.1250-0.1250 0.3750 (  4893 PWs)   bands (ev):

    -3.3347  -1.2260   2.9072   3.7502   4.8831   5.8012   6.8320

          k =-0.1250 0.1250-0.3750 (  4893 PWs)   bands (ev):

    -3.3347  -1.2260   2.9073   3.7502   4.8831   5.8012   6.8320

          k = 0.1250-0.1250-0.3750 (  4893 PWs)   bands (ev):

    -3.3347  -1.2260   2.9073   3.7502   4.8831   5.8012   6.8320

          k = 0.3750-0.1250 0.1250 (  4893 PWs)   bands (ev):

    -3.3347  -1.2260   2.9073   3.7502   4.8831   5.8012   6.8320

          k =-0.3750-0.1250-0.1250 (  4893 PWs)   bands (ev):

    -3.3347  -1.2260   2.9073   3.7502   4.8831   5.8012   6.8320

          k = 0.3750 0.1250-0.1250 (  4893 PWs)   bands (ev):

    -3.3347  -1.2260   2.9073   3.7502   4.8831   5.8012   6.8320

          k =-0.3750 0.1250 0.1250 (  4893 PWs)   bands (ev):

    -3.3347  -1.2260   2.9072   3.7502   4.8831   5.8012   6.8320

          k =-0.1250 0.3750 0.1250 (  4893 PWs)   bands (ev):

    -3.3347  -1.2260   2.9073   3.7502   4.8831   5.8012   6.8320

          k =-0.1250-0.3750-0.1250 (  4893 PWs)   bands (ev):

    -3.3347  -1.2260   2.9073   3.7502   4.8831   5.8012   6.8320

          k = 0.1250 0.3750-0.1250 (  4893 PWs)   bands (ev):

    -3.3347  -1.2260   2.9073   3.7502   4.8831   5.8012   6.8320

          k = 0.1250-0.3750 0.1250 (  4893 PWs)   bands (ev):

    -3.3347  -1.2260   2.9072   3.7502   4.8831   5.8012   6.8320

          k =-0.1250-0.3750 0.3750 (  4877 PWs)   bands (ev):

    -2.2804  -0.7132   0.7117   2.2460   4.4306   5.9923   7.0169

          k =-0.1250 0.3750-0.3750 (  4877 PWs)   bands (ev):

    -2.2804  -0.7132   0.7117   2.2460   4.4306   5.9923   7.0169

          k = 0.1250-0.3750-0.3750 (  4877 PWs)   bands (ev):

    -2.2804  -0.7132   0.7117   2.2460   4.4306   5.9923   7.0170

          k = 0.3750 0.1250-0.3750 (  4877 PWs)   bands (ev):

    -2.2804  -0.7132   0.7117   2.2460   4.4306   5.9923   7.0169

          k =-0.3750-0.1250-0.3750 (  4877 PWs)   bands (ev):

    -2.2804  -0.7132   0.7117   2.2460   4.4306   5.9923   7.0169

          k = 0.3750-0.1250 0.3750 (  4877 PWs)   bands (ev):

    -2.2804  -0.7132   0.7117   2.2460   4.4306   5.9923   7.0169

          k =-0.3750 0.1250 0.3750 (  4877 PWs)   bands (ev):

    -2.2804  -0.7132   0.7117   2.2460   4.4306   5.9923   7.0169

          k = 0.3750-0.3750 0.1250 (  4877 PWs)   bands (ev):

    -2.2804  -0.7132   0.7117   2.2460   4.4306   5.9923   7.0169

          k =-0.3750-0.3750-0.1250 (  4877 PWs)   bands (ev):

    -2.2804  -0.7132   0.7117   2.2460   4.4306   5.9923   7.0170

          k = 0.3750 0.3750-0.1250 (  4877 PWs)   bands (ev):

    -2.2804  -0.7132   0.7117   2.2460   4.4305   5.9923   7.0170

          k =-0.3750 0.3750 0.1250 (  4877 PWs)   bands (ev):

    -2.2804  -0.7132   0.7117   2.2460   4.4306   5.9923   7.0169

          k =-0.3750-0.3750 0.3750 (  4866 PWs)   bands (ev):

    -1.2686  -0.1187   1.7875   1.7875   2.5358   3.9199   3.9199

          k =-0.3750 0.3750-0.3750 (  4866 PWs)   bands (ev):

    -1.2686  -0.1187   1.7875   1.7875   2.5358   3.9199   3.9199

          k = 0.3750-0.3750-0.3750 (  4866 PWs)   bands (ev):

    -1.2686  -0.1187   1.7875   1.7875   2.5358   3.9199   3.9199

     the Fermi energy is     2.4394 ev

!    total energy              =     -78.84649168 Ry
     Harris-Foulkes estimate   =     -78.84649276 Ry
     estimated scf accuracy    <       0.00000032 Ry

     total all-electron energy =      -971.132053 Ry

     The total energy is the sum of the following terms:

     one-electron contribution =       3.57733901 Ry
     hartree contribution      =       0.10227701 Ry
     xc contribution           =      -4.62865266 Ry
     ewald contribution        =      -8.57905000 Ry
     one-center paw contrib.   =     -69.31767712 Ry
     smearing contrib. (-TS)   =      -0.00072792 Ry

     convergence has been achieved in   7 iterations

     Forces acting on atoms (cartesian axes, Ry/au):

     atom    1 type  1   force =     0.00001687   -0.00001240    0.00000289
     atom    2 type  1   force =    -0.00001687    0.00001240   -0.00000289

     Total force =     0.000030     Total SCF correction =     0.000092
     SCF correction compared to forces is large: reduce conv_thr to get better values


     Computing stress (Cartesian axis) and pressure

          total   stress  (Ry/bohr**3)                   (kbar)     P=  -93.05
  -0.00063257  -0.00000001  -0.00000001        -93.05     -0.00     -0.00
  -0.00000001  -0.00063256  -0.00000003         -0.00    -93.05     -0.00
  -0.00000001  -0.00000003  -0.00063256         -0.00     -0.00    -93.05


     Writing output data file fe_scf_fcc_2.save/

     init_run     :      0.35s CPU      0.38s WALL (       1 calls)
     electrons    :      4.42s CPU      4.59s WALL (       1 calls)
     forces       :      0.09s CPU      0.09s WALL (       1 calls)
     stress       :      0.23s CPU      0.23s WALL (       1 calls)

     Called by init_run:
     wfcinit      :      0.22s CPU      0.24s WALL (       1 calls)
     potinit      :      0.04s CPU      0.05s WALL (       1 calls)
     hinit0       :      0.08s CPU      0.08s WALL (       1 calls)

     Called by electrons:
     c_bands      :      3.52s CPU      3.64s WALL (       8 calls)
     sum_band     :      0.59s CPU      0.63s WALL (       8 calls)
     v_of_rho     :      0.09s CPU      0.09s WALL (       8 calls)
     newd         :      0.05s CPU      0.06s WALL (       8 calls)
     PAW_pot      :      0.19s CPU      0.21s WALL (       8 calls)
     mix_rho      :      0.01s CPU      0.01s WALL (       8 calls)

     Called by c_bands:
     init_us_2    :      0.13s CPU      0.14s WALL (     608 calls)
     cegterg      :      3.35s CPU      3.46s WALL (     256 calls)

     Called by sum_band:
     sum_band:bec :      0.00s CPU      0.00s WALL (     256 calls)
     addusdens    :      0.04s CPU      0.05s WALL (       8 calls)

     Called by *egterg:
     h_psi        :      2.70s CPU      2.81s WALL (     803 calls)
     s_psi        :      0.13s CPU      0.14s WALL (     803 calls)
     g_psi        :      0.01s CPU      0.01s WALL (     515 calls)
     cdiaghg      :      0.08s CPU      0.09s WALL (     739 calls)

     Called by h_psi:
     h_psi:pot    :      2.69s CPU      2.79s WALL (     803 calls)
     h_psi:calbec :      0.22s CPU      0.22s WALL (     803 calls)
     vloc_psi     :      2.33s CPU      2.42s WALL (     803 calls)
     add_vuspsi   :      0.13s CPU      0.15s WALL (     803 calls)

     General routines
     calbec       :      0.36s CPU      0.37s WALL (    1219 calls)
     fft          :      0.06s CPU      0.06s WALL (     114 calls)
     ffts         :      0.00s CPU      0.00s WALL (       8 calls)
     fftw         :      2.53s CPU      2.63s WALL (   11272 calls)

     Parallel routines
     fft_scatt_xy :      0.27s CPU      0.29s WALL (   11394 calls)
     fft_scatt_yz :      0.99s CPU      1.03s WALL (   11394 calls)

     PWSCF        :      5.59s CPU      5.84s WALL


   This run was terminated on:  15:55:21  24Feb2020            

=------------------------------------------------------------------------------=
   JOB DONE.
=------------------------------------------------------------------------------=
