
     Program PWSCF v.6.4.1 starts on 24Feb2020 at 15:42: 9 

     This program is part of the open-source Quantum ESPRESSO suite
     for quantum simulation of materials; please cite
         "P. Giannozzi et al., J. Phys.:Condens. Matter 21 395502 (2009);
         "P. Giannozzi et al., J. Phys.:Condens. Matter 29 465901 (2017);
          URL http://www.quantum-espresso.org", 
     in publications or presentations arising from this work. More details at
     http://www.quantum-espresso.org/quote

     Parallel version (MPI), running on     4 processors

     MPI processes distributed on     1 nodes
     R & G space division:  proc/nbgrp/npool/nimage =       4
     Reading input from /cloud/Code/python/py_pwscf_converge/src/example2/wd/runpwscf/file_10003.in
Warning: card &IONS ignored
Warning: card ION_DYNAMICS = 'BFGS', ignored
Warning: card / ignored
Warning: card &CELL ignored
Warning: card CELL_DYNAMICS = 'BFGS', ignored
Warning: card CELL_FACTOR = 2.0, ignored
Warning: card PRESS = 0.0, ignored
Warning: card / ignored

     Current dimensions of program PWSCF are:
     Max number of different atomic species (ntypx) = 10
     Max number of k-points (npk) =  40000
     Max angular momentum in pseudopotentials (lmaxx) =  3
               file Al.pbe-nl-kjpaw_psl.1.0.0.UPF: wavefunction(s)  3S 3P renormalized

     Subspace diagonalization in iterative solution of the eigenvalue problem:
     a serial algorithm will be used


     Parallelization info
     --------------------
     sticks:   dense  smooth     PW     G-vecs:    dense   smooth      PW
     Min         164     164     49                 3132     3132     527
     Max         165     165     50                 3135     3135     528
     Sum         657     657    197                12533    12533    2109



     bravais-lattice index     =            0
     lattice parameter (alat)  =       7.6356  a.u.
     unit-cell volume          =     445.1737 (a.u.)^3
     number of atoms/cell      =            2
     number of atomic types    =            1
     number of electrons       =         6.00
     number of Kohn-Sham states=            7
     kinetic-energy cutoff     =      35.0000  Ry
     charge density cutoff     =     140.0000  Ry
     convergence threshold     =      1.0E-06
     mixing beta               =       0.1000
     number of iterations used =           10  TF        mixing
     Exchange-correlation      = SLA PW PBX PBC ( 1  4  3  4 0 0)

     celldm(1)=   7.635600  celldm(2)=   0.000000  celldm(3)=   0.000000
     celldm(4)=   0.000000  celldm(5)=   0.000000  celldm(6)=   0.000000

     crystal axes: (cart. coord. in units of alat)
               a(1) = (   1.000000   0.000000   0.000000 )  
               a(2) = (   0.000000   1.000000   0.000000 )  
               a(3) = (   0.000000   0.000000   1.000000 )  

     reciprocal axes: (cart. coord. in units 2 pi/alat)
               b(1) = (  1.000000  0.000000  0.000000 )  
               b(2) = (  0.000000  1.000000  0.000000 )  
               b(3) = (  0.000000  0.000000  1.000000 )  


     PseudoPot. # 1 for Al read from file:
     /opt/pp/Al.pbe-nl-kjpaw_psl.1.0.0.UPF
     MD5 check sum: 1b67f78b73fe58c7924490f171ce8a1e
     Pseudo is Projector augmented-wave + core cor, Zval =  3.0
     Generated using "atomic" code by A. Dal Corso v.6.3
     Shape of augmentation charge: PSQ
     Using radial grid of 1135 points,  4 beta functions with: 
                l(1) =   0
                l(2) =   0
                l(3) =   1
                l(4) =   1
     Q(r) pseudized with 0 coefficients 


     atomic species   valence    mass     pseudopotential
        Al             3.00    26.98200     Al( 1.00)

     No symmetry found



   Cartesian axes

     site n.     atom                  positions (alat units)
         1           Al  tau(   1) = (  -0.0000654   0.0000190   0.0001361  )
         2           Al  tau(   2) = (   0.5001592   0.4996200   0.5001406  )

     number of k points=    63  Marzari-Vanderbilt smearing, width (Ry)=  0.0200
                       cart. coord. in units 2pi/alat
        k(    1) = (   0.1000000   0.1000000   0.1000000), wk =   0.0320000
        k(    2) = (   0.1000000   0.1000000   0.3000000), wk =   0.0320000
        k(    3) = (   0.1000000   0.1000000  -0.5000000), wk =   0.0320000
        k(    4) = (   0.1000000   0.3000000   0.3000000), wk =   0.0320000
        k(    5) = (   0.1000000   0.3000000  -0.5000000), wk =   0.0320000
        k(    6) = (   0.1000000  -0.5000000  -0.5000000), wk =   0.0320000
        k(    7) = (   0.3000000   0.3000000   0.3000000), wk =   0.0320000
        k(    8) = (   0.3000000   0.3000000  -0.5000000), wk =   0.0320000
        k(    9) = (   0.3000000  -0.5000000  -0.5000000), wk =   0.0320000
        k(   10) = (  -0.5000000  -0.5000000  -0.5000000), wk =   0.0160000
        k(   11) = (  -0.1000000  -0.1000000   0.1000000), wk =   0.0320000
        k(   12) = (  -0.1000000   0.1000000  -0.1000000), wk =   0.0320000
        k(   13) = (   0.1000000  -0.1000000  -0.1000000), wk =   0.0320000
        k(   14) = (  -0.1000000  -0.1000000   0.3000000), wk =   0.0320000
        k(   15) = (  -0.1000000   0.1000000  -0.3000000), wk =   0.0320000
        k(   16) = (   0.1000000  -0.1000000  -0.3000000), wk =   0.0320000
        k(   17) = (   0.3000000  -0.1000000   0.1000000), wk =   0.0320000
        k(   18) = (  -0.3000000  -0.1000000  -0.1000000), wk =   0.0320000
        k(   19) = (   0.3000000   0.1000000  -0.1000000), wk =   0.0320000
        k(   20) = (  -0.3000000   0.1000000   0.1000000), wk =   0.0320000
        k(   21) = (  -0.1000000   0.3000000   0.1000000), wk =   0.0320000
        k(   22) = (  -0.1000000  -0.3000000  -0.1000000), wk =   0.0320000
        k(   23) = (   0.1000000   0.3000000  -0.1000000), wk =   0.0320000
        k(   24) = (   0.1000000  -0.3000000   0.1000000), wk =   0.0320000
        k(   25) = (  -0.1000000   0.1000000   0.5000000), wk =   0.0320000
        k(   26) = (  -0.5000000  -0.1000000   0.1000000), wk =   0.0320000
        k(   27) = (   0.5000000  -0.1000000  -0.1000000), wk =   0.0320000
        k(   28) = (  -0.1000000  -0.5000000   0.1000000), wk =   0.0320000
        k(   29) = (  -0.1000000   0.5000000  -0.1000000), wk =   0.0320000
        k(   30) = (  -0.1000000  -0.3000000   0.3000000), wk =   0.0320000
        k(   31) = (  -0.1000000   0.3000000  -0.3000000), wk =   0.0320000
        k(   32) = (   0.1000000  -0.3000000  -0.3000000), wk =   0.0320000
        k(   33) = (   0.3000000   0.1000000  -0.3000000), wk =   0.0320000
        k(   34) = (  -0.3000000  -0.1000000  -0.3000000), wk =   0.0320000
        k(   35) = (   0.3000000  -0.1000000   0.3000000), wk =   0.0320000
        k(   36) = (  -0.3000000   0.1000000   0.3000000), wk =   0.0320000
        k(   37) = (   0.3000000  -0.3000000   0.1000000), wk =   0.0320000
        k(   38) = (  -0.3000000  -0.3000000  -0.1000000), wk =   0.0320000
        k(   39) = (   0.3000000   0.3000000  -0.1000000), wk =   0.0320000
        k(   40) = (  -0.3000000   0.3000000   0.1000000), wk =   0.0320000
        k(   41) = (  -0.1000000   0.3000000   0.5000000), wk =   0.0320000
        k(   42) = (   0.3000000   0.1000000   0.5000000), wk =   0.0320000
        k(   43) = (   0.3000000  -0.1000000  -0.5000000), wk =   0.0320000
        k(   44) = (  -0.5000000  -0.3000000   0.1000000), wk =   0.0320000
        k(   45) = (   0.5000000  -0.3000000  -0.1000000), wk =   0.0320000
        k(   46) = (  -0.1000000  -0.5000000   0.3000000), wk =   0.0320000
        k(   47) = (  -0.1000000   0.5000000  -0.3000000), wk =   0.0320000
        k(   48) = (   0.3000000  -0.5000000   0.1000000), wk =   0.0320000
        k(   49) = (   0.3000000   0.5000000  -0.1000000), wk =   0.0320000
        k(   50) = (  -0.5000000   0.1000000   0.3000000), wk =   0.0320000
        k(   51) = (   0.5000000  -0.1000000   0.3000000), wk =   0.0320000
        k(   52) = (  -0.5000000   0.1000000   0.5000000), wk =   0.0320000
        k(   53) = (  -0.5000000   0.5000000   0.1000000), wk =   0.0320000
        k(   54) = (  -0.3000000  -0.3000000   0.3000000), wk =   0.0320000
        k(   55) = (  -0.3000000   0.3000000  -0.3000000), wk =   0.0320000
        k(   56) = (   0.3000000  -0.3000000  -0.3000000), wk =   0.0320000
        k(   57) = (  -0.3000000   0.3000000   0.5000000), wk =   0.0320000
        k(   58) = (  -0.5000000  -0.3000000   0.3000000), wk =   0.0320000
        k(   59) = (   0.5000000  -0.3000000  -0.3000000), wk =   0.0320000
        k(   60) = (  -0.3000000  -0.5000000   0.3000000), wk =   0.0320000
        k(   61) = (  -0.3000000   0.5000000  -0.3000000), wk =   0.0320000
        k(   62) = (  -0.5000000   0.3000000   0.5000000), wk =   0.0320000
        k(   63) = (  -0.5000000   0.5000000   0.3000000), wk =   0.0320000

     Dense  grid:    12533 G-vectors     FFT dimensions: (  30,  30,  30)

     Estimated max dynamical RAM per process >       7.46 MB

     Estimated total dynamical RAM >      29.86 MB

     Initial potential from superposition of free atoms

     starting charge    5.99542, renormalised to    6.00000
     Starting wfcs are    8 randomized atomic wfcs
     Checking if some PAW data can be deallocated... 

     total cpu time spent up to now is        0.7 secs

     Self-consistent Calculation

     iteration #  1     ecut=    35.00 Ry     beta= 0.10
     Davidson diagonalization with overlap
     ethr =  1.00E-02,  avg # of iterations =  3.3

     Threshold (ethr) on eigenvalues was too large:
     Diagonalizing with lowered threshold

     Davidson diagonalization with overlap
     ethr =  1.34E-04,  avg # of iterations =  2.7

     total cpu time spent up to now is        1.6 secs

     total energy              =     -78.85763319 Ry
     Harris-Foulkes estimate   =     -78.85792170 Ry
     estimated scf accuracy    <       0.00789218 Ry

     iteration #  2     ecut=    35.00 Ry     beta= 0.10
     Davidson diagonalization with overlap
     ethr =  1.32E-04,  avg # of iterations =  1.0

     total cpu time spent up to now is        1.9 secs

     total energy              =     -78.85551317 Ry
     Harris-Foulkes estimate   =     -78.85767147 Ry
     estimated scf accuracy    <       0.00688256 Ry

     iteration #  3     ecut=    35.00 Ry     beta= 0.10
     Davidson diagonalization with overlap
     ethr =  1.15E-04,  avg # of iterations =  1.0

     total cpu time spent up to now is        2.2 secs

     total energy              =     -78.85582229 Ry
     Harris-Foulkes estimate   =     -78.85587205 Ry
     estimated scf accuracy    <       0.00003037 Ry

     iteration #  4     ecut=    35.00 Ry     beta= 0.10
     Davidson diagonalization with overlap
     ethr =  5.06E-07,  avg # of iterations =  3.1

     total cpu time spent up to now is        2.8 secs

     total energy              =     -78.85579918 Ry
     Harris-Foulkes estimate   =     -78.85586588 Ry
     estimated scf accuracy    <       0.00001904 Ry

     iteration #  5     ecut=    35.00 Ry     beta= 0.10
     Davidson diagonalization with overlap
     ethr =  3.17E-07,  avg # of iterations =  2.0

     total cpu time spent up to now is        3.2 secs

     total energy              =     -78.85578718 Ry
     Harris-Foulkes estimate   =     -78.85580222 Ry
     estimated scf accuracy    <       0.00001943 Ry

     iteration #  6     ecut=    35.00 Ry     beta= 0.10
     Davidson diagonalization with overlap
     ethr =  3.17E-07,  avg # of iterations =  2.0

     total cpu time spent up to now is        3.5 secs

     End of self-consistent calculation

          k = 0.1000 0.1000 0.1000 (  1560 PWs)   bands (ev):

    -4.5729   1.2787   2.9242   2.9242   4.9376   7.2252   7.2252

          k = 0.1000 0.1000 0.3000 (  1532 PWs)   bands (ev):

    -3.8714  -0.5121   2.8394   3.5932   5.9643   5.9671   6.8175

          k = 0.1000 0.1000-0.5000 (  1556 PWs)   bands (ev):

    -2.4896  -2.4890   4.0905   4.0912   4.9129   4.9134   7.2142

          k = 0.1000 0.3000 0.3000 (  1565 PWs)   bands (ev):

    -3.1802  -0.3573   1.0692   3.8026   3.9652   6.6875   7.1454

          k = 0.1000 0.3000-0.5000 (  1560 PWs)   bands (ev):

    -1.8420  -1.8414   1.8741   1.8747   5.2310   5.2315   7.9034

          k = 0.1000-0.5000-0.5000 (  1548 PWs)   bands (ev):

    -1.0109  -1.0105   0.4017   0.4018   6.0064   6.0068   7.1395

          k = 0.3000 0.3000 0.3000 (  1556 PWs)   bands (ev):

    -2.4998  -0.0902   1.7564   1.7564   3.6789   5.1425   5.1426

          k = 0.3000 0.3000-0.5000 (  1554 PWs)   bands (ev):

    -1.2104  -1.2097   2.1387   2.1393   3.1226   3.1231   6.0900

          k = 0.3000-0.5000-0.5000 (  1564 PWs)   bands (ev):

    -0.4338  -0.4334   1.0922   1.0922   3.7118   3.7121   4.5074

          k =-0.5000-0.5000-0.5000 (  1568 PWs)   bands (ev):

     0.1767   0.1772   2.4635   2.4642   2.4668   2.4680   2.4704

          k =-0.1000-0.1000 0.1000 (  1560 PWs)   bands (ev):

    -4.5729   1.2788   2.9241   2.9242   4.9376   7.2252   7.2252

          k =-0.1000 0.1000-0.1000 (  1560 PWs)   bands (ev):

    -4.5729   1.2788   2.9241   2.9242   4.9376   7.2252   7.2253

          k = 0.1000-0.1000-0.1000 (  1560 PWs)   bands (ev):

    -4.5729   1.2788   2.9241   2.9242   4.9376   7.2252   7.2252

          k =-0.1000-0.1000 0.3000 (  1532 PWs)   bands (ev):

    -3.8714  -0.5121   2.8393   3.5932   5.9645   5.9670   6.8175

          k =-0.1000 0.1000-0.3000 (  1532 PWs)   bands (ev):

    -3.8714  -0.5121   2.8393   3.5931   5.9634   5.9681   6.8175

          k = 0.1000-0.1000-0.3000 (  1532 PWs)   bands (ev):

    -3.8714  -0.5121   2.8394   3.5931   5.9632   5.9683   6.8175

          k = 0.3000-0.1000 0.1000 (  1532 PWs)   bands (ev):

    -3.8714  -0.5121   2.8394   3.5931   5.9634   5.9681   6.8175

          k =-0.3000-0.1000-0.1000 (  1532 PWs)   bands (ev):

    -3.8714  -0.5121   2.8393   3.5932   5.9643   5.9671   6.8175

          k = 0.3000 0.1000-0.1000 (  1532 PWs)   bands (ev):

    -3.8714  -0.5121   2.8394   3.5931   5.9644   5.9671   6.8174

          k =-0.3000 0.1000 0.1000 (  1532 PWs)   bands (ev):

    -3.8714  -0.5121   2.8393   3.5932   5.9633   5.9682   6.8175

          k =-0.1000 0.3000 0.1000 (  1532 PWs)   bands (ev):

    -3.8714  -0.5121   2.8394   3.5931   5.9633   5.9682   6.8175

          k =-0.1000-0.3000-0.1000 (  1532 PWs)   bands (ev):

    -3.8714  -0.5121   2.8394   3.5932   5.9644   5.9670   6.8175

          k = 0.1000 0.3000-0.1000 (  1532 PWs)   bands (ev):

    -3.8714  -0.5121   2.8393   3.5931   5.9645   5.9670   6.8175

          k = 0.1000-0.3000 0.1000 (  1532 PWs)   bands (ev):

    -3.8714  -0.5121   2.8393   3.5932   5.9634   5.9681   6.8175

          k =-0.1000 0.1000 0.5000 (  1556 PWs)   bands (ev):

    -2.4896  -2.4890   4.0905   4.0912   4.9129   4.9134   7.2139

          k =-0.5000-0.1000 0.1000 (  1556 PWs)   bands (ev):

    -2.4906  -2.4880   4.0899   4.0919   4.9115   4.9147   7.2145

          k = 0.5000-0.1000-0.1000 (  1556 PWs)   bands (ev):

    -2.4906  -2.4880   4.0899   4.0918   4.9116   4.9148   7.2140

          k =-0.1000-0.5000 0.1000 (  1556 PWs)   bands (ev):

    -2.4920  -2.4866   4.0887   4.0931   4.9100   4.9163   7.2127

          k =-0.1000 0.5000-0.1000 (  1556 PWs)   bands (ev):

    -2.4920  -2.4866   4.0887   4.0931   4.9101   4.9163   7.2125

          k =-0.1000-0.3000 0.3000 (  1565 PWs)   bands (ev):

    -3.1802  -0.3573   1.0691   3.8026   3.9652   6.6876   7.1454

          k =-0.1000 0.3000-0.3000 (  1565 PWs)   bands (ev):

    -3.1802  -0.3573   1.0691   3.8026   3.9652   6.6875   7.1454

          k = 0.1000-0.3000-0.3000 (  1565 PWs)   bands (ev):

    -3.1802  -0.3573   1.0692   3.8026   3.9652   6.6875   7.1454

          k = 0.3000 0.1000-0.3000 (  1565 PWs)   bands (ev):

    -3.1802  -0.3573   1.0691   3.8026   3.9652   6.6876   7.1454

          k =-0.3000-0.1000-0.3000 (  1565 PWs)   bands (ev):

    -3.1802  -0.3573   1.0692   3.8026   3.9652   6.6875   7.1453

          k = 0.3000-0.1000 0.3000 (  1565 PWs)   bands (ev):

    -3.1802  -0.3573   1.0692   3.8026   3.9652   6.6875   7.1454

          k =-0.3000 0.1000 0.3000 (  1565 PWs)   bands (ev):

    -3.1802  -0.3573   1.0691   3.8026   3.9652   6.6875   7.1454

          k = 0.3000-0.3000 0.1000 (  1565 PWs)   bands (ev):

    -3.1802  -0.3573   1.0691   3.8026   3.9652   6.6875   7.1454

          k =-0.3000-0.3000-0.1000 (  1565 PWs)   bands (ev):

    -3.1802  -0.3573   1.0692   3.8026   3.9652   6.6875   7.1453

          k = 0.3000 0.3000-0.1000 (  1565 PWs)   bands (ev):

    -3.1802  -0.3573   1.0692   3.8026   3.9652   6.6875   7.1454

          k =-0.3000 0.3000 0.1000 (  1565 PWs)   bands (ev):

    -3.1802  -0.3573   1.0691   3.8026   3.9652   6.6875   7.1454

          k =-0.1000 0.3000 0.5000 (  1560 PWs)   bands (ev):

    -1.8420  -1.8414   1.8741   1.8747   5.2310   5.2315   7.9033

          k = 0.3000 0.1000 0.5000 (  1560 PWs)   bands (ev):

    -1.8420  -1.8414   1.8741   1.8747   5.2310   5.2315   7.9032

          k = 0.3000-0.1000-0.5000 (  1560 PWs)   bands (ev):

    -1.8420  -1.8414   1.8741   1.8747   5.2310   5.2315   7.9032

          k =-0.5000-0.3000 0.1000 (  1560 PWs)   bands (ev):

    -1.8430  -1.8405   1.8732   1.8756   5.2299   5.2326   7.9034

          k = 0.5000-0.3000-0.1000 (  1560 PWs)   bands (ev):

    -1.8430  -1.8405   1.8732   1.8756   5.2299   5.2326   7.9033

          k =-0.1000-0.5000 0.3000 (  1560 PWs)   bands (ev):

    -1.8443  -1.8392   1.8720   1.8768   5.2285   5.2340   7.9035

          k =-0.1000 0.5000-0.3000 (  1560 PWs)   bands (ev):

    -1.8443  -1.8392   1.8720   1.8768   5.2286   5.2340   7.9035

          k = 0.3000-0.5000 0.1000 (  1560 PWs)   bands (ev):

    -1.8443  -1.8392   1.8720   1.8768   5.2285   5.2340   7.9036

          k = 0.3000 0.5000-0.1000 (  1560 PWs)   bands (ev):

    -1.8443  -1.8392   1.8720   1.8768   5.2285   5.2339   7.9031

          k =-0.5000 0.1000 0.3000 (  1560 PWs)   bands (ev):

    -1.8430  -1.8405   1.8732   1.8755   5.2299   5.2326   7.9033

          k = 0.5000-0.1000 0.3000 (  1560 PWs)   bands (ev):

    -1.8430  -1.8405   1.8732   1.8755   5.2299   5.2326   7.9032

          k =-0.5000 0.1000 0.5000 (  1548 PWs)   bands (ev):

    -1.0109  -1.0105   0.4017   0.4018   6.0064   6.0067   7.1395

          k =-0.5000 0.5000 0.1000 (  1548 PWs)   bands (ev):

    -1.0109  -1.0105   0.4017   0.4018   6.0064   6.0067   7.1396

          k =-0.3000-0.3000 0.3000 (  1556 PWs)   bands (ev):

    -2.4998  -0.0901   1.7563   1.7564   3.6790   5.1425   5.1426

          k =-0.3000 0.3000-0.3000 (  1556 PWs)   bands (ev):

    -2.4997  -0.0901   1.7563   1.7564   3.6790   5.1425   5.1425

          k = 0.3000-0.3000-0.3000 (  1556 PWs)   bands (ev):

    -2.4997  -0.0902   1.7563   1.7564   3.6790   5.1425   5.1426

          k =-0.3000 0.3000 0.5000 (  1554 PWs)   bands (ev):

    -1.2103  -1.2097   2.1387   2.1393   3.1226   3.1231   6.0903

          k =-0.5000-0.3000 0.3000 (  1554 PWs)   bands (ev):

    -1.2112  -1.2089   2.1382   2.1399   3.1212   3.1244   6.0891

          k = 0.5000-0.3000-0.3000 (  1554 PWs)   bands (ev):

    -1.2112  -1.2089   2.1381   2.1399   3.1213   3.1244   6.0890

          k =-0.3000-0.5000 0.3000 (  1554 PWs)   bands (ev):

    -1.2124  -1.2077   2.1371   2.1410   3.1198   3.1259   6.0889

          k =-0.3000 0.5000-0.3000 (  1554 PWs)   bands (ev):

    -1.2124  -1.2077   2.1371   2.1410   3.1198   3.1259   6.0879

          k =-0.5000 0.3000 0.5000 (  1564 PWs)   bands (ev):

    -0.4338  -0.4334   1.0922   1.0922   3.7118   3.7121   4.5074

          k =-0.5000 0.5000 0.3000 (  1564 PWs)   bands (ev):

    -0.4338  -0.4334   1.0922   1.0922   3.7118   3.7121   4.5075

     the Fermi energy is     2.1485 ev

!    total energy              =     -78.85578794 Ry
     Harris-Foulkes estimate   =     -78.85578945 Ry
     estimated scf accuracy    <       0.00000059 Ry

     total all-electron energy =      -971.141349 Ry

     The total energy is the sum of the following terms:

     one-electron contribution =       3.56660538 Ry
     hartree contribution      =       0.10279326 Ry
     xc contribution           =      -4.62925689 Ry
     ewald contribution        =      -8.57905003 Ry
     one-center paw contrib.   =     -69.31809477 Ry
     smearing contrib. (-TS)   =       0.00121511 Ry

     convergence has been achieved in   6 iterations

     Forces acting on atoms (cartesian axes, Ry/au):

     atom    1 type  1   force =     0.00002111    0.00003513   -0.00000849
     atom    2 type  1   force =    -0.00002111   -0.00003513    0.00000849

     Total force =     0.000059     Total SCF correction =     0.000238
     SCF correction compared to forces is large: reduce conv_thr to get better values


     Computing stress (Cartesian axis) and pressure

          total   stress  (Ry/bohr**3)                   (kbar)     P=  -94.61
  -0.00064319   0.00000004  -0.00000006        -94.62      0.01     -0.01
   0.00000004  -0.00064317  -0.00000005          0.01    -94.61     -0.01
  -0.00000006  -0.00000005  -0.00064317         -0.01     -0.01    -94.61


     Writing output data file fe_scf_fcc_2.save/

     init_run     :      0.24s CPU      0.25s WALL (       1 calls)
     electrons    :      2.74s CPU      2.86s WALL (       1 calls)
     forces       :      0.05s CPU      0.05s WALL (       1 calls)
     stress       :      0.12s CPU      0.12s WALL (       1 calls)

     Called by init_run:
     wfcinit      :      0.15s CPU      0.16s WALL (       1 calls)
     potinit      :      0.03s CPU      0.03s WALL (       1 calls)
     hinit0       :      0.05s CPU      0.05s WALL (       1 calls)

     Called by electrons:
     c_bands      :      2.20s CPU      2.29s WALL (       7 calls)
     sum_band     :      0.37s CPU      0.39s WALL (       7 calls)
     v_of_rho     :      0.03s CPU      0.03s WALL (       7 calls)
     newd         :      0.01s CPU      0.01s WALL (       7 calls)
     PAW_pot      :      0.15s CPU      0.16s WALL (       7 calls)
     mix_rho      :      0.00s CPU      0.00s WALL (       7 calls)

     Called by c_bands:
     init_us_2    :      0.06s CPU      0.06s WALL (    1071 calls)
     cegterg      :      2.12s CPU      2.21s WALL (     441 calls)

     Called by sum_band:
     sum_band:bec :      0.00s CPU      0.00s WALL (     441 calls)
     addusdens    :      0.01s CPU      0.01s WALL (       7 calls)

     Called by *egterg:
     h_psi        :      1.80s CPU      1.88s WALL (    1452 calls)
     s_psi        :      0.06s CPU      0.06s WALL (    1452 calls)
     g_psi        :      0.01s CPU      0.01s WALL (     948 calls)
     cdiaghg      :      0.09s CPU      0.10s WALL (    1326 calls)

     Called by h_psi:
     h_psi:pot    :      1.80s CPU      1.87s WALL (    1452 calls)
     h_psi:calbec :      0.11s CPU      0.12s WALL (    1452 calls)
     vloc_psi     :      1.62s CPU      1.69s WALL (    1452 calls)
     add_vuspsi   :      0.06s CPU      0.06s WALL (    1452 calls)

     General routines
     calbec       :      0.19s CPU      0.19s WALL (    2208 calls)
     fft          :      0.02s CPU      0.02s WALL (     103 calls)
     ffts         :      0.00s CPU      0.00s WALL (       7 calls)
     fftw         :      1.79s CPU      1.87s WALL (   19543 calls)

     Parallel routines
     fft_scatt_xy :      0.17s CPU      0.17s WALL (   19653 calls)
     fft_scatt_yz :      0.78s CPU      0.82s WALL (   19653 calls)

     PWSCF        :      3.60s CPU      3.76s WALL


   This run was terminated on:  15:42:12  24Feb2020            

=------------------------------------------------------------------------------=
   JOB DONE.
=------------------------------------------------------------------------------=
