
     Program PWSCF v.6.4.1 starts on 24Feb2020 at 15:55:42 

     This program is part of the open-source Quantum ESPRESSO suite
     for quantum simulation of materials; please cite
         "P. Giannozzi et al., J. Phys.:Condens. Matter 21 395502 (2009);
         "P. Giannozzi et al., J. Phys.:Condens. Matter 29 465901 (2017);
          URL http://www.quantum-espresso.org", 
     in publications or presentations arising from this work. More details at
     http://www.quantum-espresso.org/quote

     Parallel version (MPI), running on     4 processors

     MPI processes distributed on     1 nodes
     R & G space division:  proc/nbgrp/npool/nimage =       4
     Reading input from /cloud/Code/python/py_pwscf_converge/src/example2/wd/runpwscf/file_10176.in
Warning: card &IONS ignored
Warning: card ION_DYNAMICS = 'BFGS', ignored
Warning: card / ignored
Warning: card &CELL ignored
Warning: card CELL_DYNAMICS = 'BFGS', ignored
Warning: card CELL_FACTOR = 2.0, ignored
Warning: card PRESS = 0.0, ignored
Warning: card / ignored

     Current dimensions of program PWSCF are:
     Max number of different atomic species (ntypx) = 10
     Max number of k-points (npk) =  40000
     Max angular momentum in pseudopotentials (lmaxx) =  3
               file Al.pbe-nl-kjpaw_psl.1.0.0.UPF: wavefunction(s)  3S 3P renormalized

     Subspace diagonalization in iterative solution of the eigenvalue problem:
     a serial algorithm will be used


     Parallelization info
     --------------------
     sticks:   dense  smooth     PW     G-vecs:    dense   smooth      PW
     Min         300     300    122                 7858     7858    2054
     Max         301     301    123                 7863     7863    2055
     Sum        1201    1201    489                31439    31439    8217



     bravais-lattice index     =            0
     lattice parameter (alat)  =       7.6356  a.u.
     unit-cell volume          =     445.1737 (a.u.)^3
     number of atoms/cell      =            2
     number of atomic types    =            1
     number of electrons       =         6.00
     number of Kohn-Sham states=            7
     kinetic-energy cutoff     =      95.0000  Ry
     charge density cutoff     =     260.0000  Ry
     convergence threshold     =      1.0E-06
     mixing beta               =       0.1000
     number of iterations used =           10  TF        mixing
     Exchange-correlation      = SLA PW PBX PBC ( 1  4  3  4 0 0)

     celldm(1)=   7.635600  celldm(2)=   0.000000  celldm(3)=   0.000000
     celldm(4)=   0.000000  celldm(5)=   0.000000  celldm(6)=   0.000000

     crystal axes: (cart. coord. in units of alat)
               a(1) = (   1.000000   0.000000   0.000000 )  
               a(2) = (   0.000000   1.000000   0.000000 )  
               a(3) = (   0.000000   0.000000   1.000000 )  

     reciprocal axes: (cart. coord. in units 2 pi/alat)
               b(1) = (  1.000000  0.000000  0.000000 )  
               b(2) = (  0.000000  1.000000  0.000000 )  
               b(3) = (  0.000000  0.000000  1.000000 )  


     PseudoPot. # 1 for Al read from file:
     /opt/pp/Al.pbe-nl-kjpaw_psl.1.0.0.UPF
     MD5 check sum: 1b67f78b73fe58c7924490f171ce8a1e
     Pseudo is Projector augmented-wave + core cor, Zval =  3.0
     Generated using "atomic" code by A. Dal Corso v.6.3
     Shape of augmentation charge: PSQ
     Using radial grid of 1135 points,  4 beta functions with: 
                l(1) =   0
                l(2) =   0
                l(3) =   1
                l(4) =   1
     Q(r) pseudized with 0 coefficients 


     atomic species   valence    mass     pseudopotential
        Al             3.00    26.98200     Al( 1.00)

     No symmetry found



   Cartesian axes

     site n.     atom                  positions (alat units)
         1           Al  tau(   1) = (  -0.0000654   0.0000190   0.0001361  )
         2           Al  tau(   2) = (   0.5001592   0.4996200   0.5001406  )

     number of k points=    32  Marzari-Vanderbilt smearing, width (Ry)=  0.0200
                       cart. coord. in units 2pi/alat
        k(    1) = (   0.1250000   0.1250000   0.1250000), wk =   0.0625000
        k(    2) = (   0.1250000   0.1250000   0.3750000), wk =   0.0625000
        k(    3) = (   0.1250000   0.3750000   0.3750000), wk =   0.0625000
        k(    4) = (   0.3750000   0.3750000   0.3750000), wk =   0.0625000
        k(    5) = (  -0.1250000  -0.1250000   0.1250000), wk =   0.0625000
        k(    6) = (  -0.1250000   0.1250000  -0.1250000), wk =   0.0625000
        k(    7) = (   0.1250000  -0.1250000  -0.1250000), wk =   0.0625000
        k(    8) = (  -0.1250000  -0.1250000   0.3750000), wk =   0.0625000
        k(    9) = (  -0.1250000   0.1250000  -0.3750000), wk =   0.0625000
        k(   10) = (   0.1250000  -0.1250000  -0.3750000), wk =   0.0625000
        k(   11) = (   0.3750000  -0.1250000   0.1250000), wk =   0.0625000
        k(   12) = (  -0.3750000  -0.1250000  -0.1250000), wk =   0.0625000
        k(   13) = (   0.3750000   0.1250000  -0.1250000), wk =   0.0625000
        k(   14) = (  -0.3750000   0.1250000   0.1250000), wk =   0.0625000
        k(   15) = (  -0.1250000   0.3750000   0.1250000), wk =   0.0625000
        k(   16) = (  -0.1250000  -0.3750000  -0.1250000), wk =   0.0625000
        k(   17) = (   0.1250000   0.3750000  -0.1250000), wk =   0.0625000
        k(   18) = (   0.1250000  -0.3750000   0.1250000), wk =   0.0625000
        k(   19) = (  -0.1250000  -0.3750000   0.3750000), wk =   0.0625000
        k(   20) = (  -0.1250000   0.3750000  -0.3750000), wk =   0.0625000
        k(   21) = (   0.1250000  -0.3750000  -0.3750000), wk =   0.0625000
        k(   22) = (   0.3750000   0.1250000  -0.3750000), wk =   0.0625000
        k(   23) = (  -0.3750000  -0.1250000  -0.3750000), wk =   0.0625000
        k(   24) = (   0.3750000  -0.1250000   0.3750000), wk =   0.0625000
        k(   25) = (  -0.3750000   0.1250000   0.3750000), wk =   0.0625000
        k(   26) = (   0.3750000  -0.3750000   0.1250000), wk =   0.0625000
        k(   27) = (  -0.3750000  -0.3750000  -0.1250000), wk =   0.0625000
        k(   28) = (   0.3750000   0.3750000  -0.1250000), wk =   0.0625000
        k(   29) = (  -0.3750000   0.3750000   0.1250000), wk =   0.0625000
        k(   30) = (  -0.3750000  -0.3750000   0.3750000), wk =   0.0625000
        k(   31) = (  -0.3750000   0.3750000  -0.3750000), wk =   0.0625000
        k(   32) = (   0.3750000  -0.3750000  -0.3750000), wk =   0.0625000

     Dense  grid:    31439 G-vectors     FFT dimensions: (  40,  40,  40)

     Estimated max dynamical RAM per process >      17.85 MB

     Estimated total dynamical RAM >      71.40 MB

     Initial potential from superposition of free atoms

     starting charge    5.99542, renormalised to    6.00000
     Starting wfcs are    8 randomized atomic wfcs
     Checking if some PAW data can be deallocated... 

     total cpu time spent up to now is        0.9 secs

     Self-consistent Calculation

     iteration #  1     ecut=    95.00 Ry     beta= 0.10
     Davidson diagonalization with overlap
     ethr =  1.00E-02,  avg # of iterations =  3.0

     Threshold (ethr) on eigenvalues was too large:
     Diagonalizing with lowered threshold

     Davidson diagonalization with overlap
     ethr =  1.39E-04,  avg # of iterations =  2.6

     total cpu time spent up to now is        2.4 secs

     total energy              =     -78.84838792 Ry
     Harris-Foulkes estimate   =     -78.84868086 Ry
     estimated scf accuracy    <       0.00800653 Ry

     iteration #  2     ecut=    95.00 Ry     beta= 0.10
     Davidson diagonalization with overlap
     ethr =  1.33E-04,  avg # of iterations =  1.0

     total cpu time spent up to now is        3.0 secs

     total energy              =     -78.84620907 Ry
     Harris-Foulkes estimate   =     -78.84842292 Ry
     estimated scf accuracy    <       0.00702268 Ry

     iteration #  3     ecut=    95.00 Ry     beta= 0.10
     Davidson diagonalization with overlap
     ethr =  1.17E-04,  avg # of iterations =  1.0

     total cpu time spent up to now is        3.6 secs

     total energy              =     -78.84654969 Ry
     Harris-Foulkes estimate   =     -78.84661229 Ry
     estimated scf accuracy    <       0.00005151 Ry

     iteration #  4     ecut=    95.00 Ry     beta= 0.10
     Davidson diagonalization with overlap
     ethr =  8.59E-07,  avg # of iterations =  3.6

     total cpu time spent up to now is        4.5 secs

     total energy              =     -78.84651462 Ry
     Harris-Foulkes estimate   =     -78.84659778 Ry
     estimated scf accuracy    <       0.00002602 Ry

     iteration #  5     ecut=    95.00 Ry     beta= 0.10
     Davidson diagonalization with overlap
     ethr =  4.34E-07,  avg # of iterations =  2.0

     total cpu time spent up to now is        5.2 secs

     total energy              =     -78.84649246 Ry
     Harris-Foulkes estimate   =     -78.84652105 Ry
     estimated scf accuracy    <       0.00004930 Ry

     iteration #  6     ecut=    95.00 Ry     beta= 0.10
     Davidson diagonalization with overlap
     ethr =  4.34E-07,  avg # of iterations =  2.0

     total cpu time spent up to now is        5.9 secs

     End of self-consistent calculation

          k = 0.1250 0.1250 0.1250 (  6955 PWs)   bands (ev):

    -4.4257   1.0099   2.7004   2.7005   5.4530   7.3963   7.7333

          k = 0.1250 0.1250 0.3750 (  6952 PWs)   bands (ev):

    -3.3352  -1.2265   2.9068   3.7497   4.8825   5.8007   6.8314

          k = 0.1250 0.3750 0.3750 (  6975 PWs)   bands (ev):

    -2.2808  -0.7138   0.7114   2.2456   4.4301   5.9917   7.0166

          k = 0.3750 0.3750 0.3750 (  6968 PWs)   bands (ev):

    -1.2691  -0.1193   1.7872   1.7872   2.5352   3.9196   3.9196

          k =-0.1250-0.1250 0.1250 (  6955 PWs)   bands (ev):

    -4.4257   1.0099   2.7004   2.7005   5.4531   7.3963   7.7333

          k =-0.1250 0.1250-0.1250 (  6955 PWs)   bands (ev):

    -4.4257   1.0099   2.7004   2.7004   5.4531   7.3964   7.7333

          k = 0.1250-0.1250-0.1250 (  6955 PWs)   bands (ev):

    -4.4257   1.0099   2.7004   2.7004   5.4531   7.3963   7.7333

          k =-0.1250-0.1250 0.3750 (  6952 PWs)   bands (ev):

    -3.3352  -1.2265   2.9068   3.7497   4.8825   5.8007   6.8315

          k =-0.1250 0.1250-0.3750 (  6952 PWs)   bands (ev):

    -3.3352  -1.2265   2.9068   3.7497   4.8826   5.8006   6.8315

          k = 0.1250-0.1250-0.3750 (  6952 PWs)   bands (ev):

    -3.3352  -1.2265   2.9068   3.7497   4.8826   5.8006   6.8315

          k = 0.3750-0.1250 0.1250 (  6952 PWs)   bands (ev):

    -3.3352  -1.2265   2.9068   3.7497   4.8826   5.8006   6.8315

          k =-0.3750-0.1250-0.1250 (  6952 PWs)   bands (ev):

    -3.3352  -1.2265   2.9068   3.7497   4.8825   5.8007   6.8314

          k = 0.3750 0.1250-0.1250 (  6952 PWs)   bands (ev):

    -3.3352  -1.2265   2.9068   3.7497   4.8826   5.8006   6.8315

          k =-0.3750 0.1250 0.1250 (  6952 PWs)   bands (ev):

    -3.3352  -1.2265   2.9068   3.7497   4.8826   5.8007   6.8315

          k =-0.1250 0.3750 0.1250 (  6952 PWs)   bands (ev):

    -3.3352  -1.2265   2.9068   3.7497   4.8826   5.8006   6.8315

          k =-0.1250-0.3750-0.1250 (  6952 PWs)   bands (ev):

    -3.3352  -1.2265   2.9068   3.7497   4.8825   5.8007   6.8314

          k = 0.1250 0.3750-0.1250 (  6952 PWs)   bands (ev):

    -3.3352  -1.2265   2.9068   3.7497   4.8826   5.8006   6.8315

          k = 0.1250-0.3750 0.1250 (  6952 PWs)   bands (ev):

    -3.3352  -1.2265   2.9068   3.7497   4.8826   5.8007   6.8315

          k =-0.1250-0.3750 0.3750 (  6975 PWs)   bands (ev):

    -2.2808  -0.7138   0.7114   2.2456   4.4301   5.9917   7.0166

          k =-0.1250 0.3750-0.3750 (  6975 PWs)   bands (ev):

    -2.2808  -0.7138   0.7114   2.2456   4.4301   5.9917   7.0166

          k = 0.1250-0.3750-0.3750 (  6975 PWs)   bands (ev):

    -2.2808  -0.7138   0.7114   2.2456   4.4301   5.9917   7.0166

          k = 0.3750 0.1250-0.3750 (  6975 PWs)   bands (ev):

    -2.2808  -0.7138   0.7114   2.2456   4.4301   5.9917   7.0166

          k =-0.3750-0.1250-0.3750 (  6975 PWs)   bands (ev):

    -2.2808  -0.7138   0.7114   2.2456   4.4301   5.9917   7.0166

          k = 0.3750-0.1250 0.3750 (  6975 PWs)   bands (ev):

    -2.2808  -0.7138   0.7114   2.2456   4.4301   5.9917   7.0166

          k =-0.3750 0.1250 0.3750 (  6975 PWs)   bands (ev):

    -2.2808  -0.7138   0.7114   2.2456   4.4301   5.9917   7.0166

          k = 0.3750-0.3750 0.1250 (  6975 PWs)   bands (ev):

    -2.2808  -0.7138   0.7114   2.2456   4.4301   5.9917   7.0166

          k =-0.3750-0.3750-0.1250 (  6975 PWs)   bands (ev):

    -2.2808  -0.7138   0.7114   2.2456   4.4301   5.9917   7.0166

          k = 0.3750 0.3750-0.1250 (  6975 PWs)   bands (ev):

    -2.2808  -0.7138   0.7114   2.2456   4.4301   5.9917   7.0166

          k =-0.3750 0.3750 0.1250 (  6975 PWs)   bands (ev):

    -2.2808  -0.7138   0.7114   2.2456   4.4301   5.9917   7.0166

          k =-0.3750-0.3750 0.3750 (  6968 PWs)   bands (ev):

    -1.2691  -0.1193   1.7872   1.7872   2.5352   3.9195   3.9196

          k =-0.3750 0.3750-0.3750 (  6968 PWs)   bands (ev):

    -1.2691  -0.1193   1.7872   1.7872   2.5353   3.9195   3.9196

          k = 0.3750-0.3750-0.3750 (  6968 PWs)   bands (ev):

    -1.2691  -0.1193   1.7872   1.7872   2.5353   3.9195   3.9196

     the Fermi energy is     2.4389 ev

!    total energy              =     -78.84649482 Ry
     Harris-Foulkes estimate   =     -78.84649665 Ry
     estimated scf accuracy    <       0.00000069 Ry

     total all-electron energy =      -971.132056 Ry

     The total energy is the sum of the following terms:

     one-electron contribution =       3.57736282 Ry
     hartree contribution      =       0.10227951 Ry
     xc contribution           =      -4.62866960 Ry
     ewald contribution        =      -8.57905000 Ry
     one-center paw contrib.   =     -69.31768930 Ry
     smearing contrib. (-TS)   =      -0.00072825 Ry

     convergence has been achieved in   6 iterations

     Forces acting on atoms (cartesian axes, Ry/au):

     atom    1 type  1   force =     0.00003461   -0.00002400    0.00000390
     atom    2 type  1   force =    -0.00003461    0.00002400   -0.00000390

     Total force =     0.000060     Total SCF correction =     0.000148
     SCF correction compared to forces is large: reduce conv_thr to get better values


     Computing stress (Cartesian axis) and pressure

          total   stress  (Ry/bohr**3)                   (kbar)     P=  -93.06
  -0.00063258  -0.00000001  -0.00000001        -93.06     -0.00     -0.00
  -0.00000001  -0.00063259  -0.00000001         -0.00    -93.06     -0.00
  -0.00000001  -0.00000001  -0.00063257         -0.00     -0.00    -93.05


     Writing output data file fe_scf_fcc_2.save/

     init_run     :      0.40s CPU      0.41s WALL (       1 calls)
     electrons    :      4.81s CPU      5.00s WALL (       1 calls)
     forces       :      0.11s CPU      0.13s WALL (       1 calls)
     stress       :      0.29s CPU      0.32s WALL (       1 calls)

     Called by init_run:
     wfcinit      :      0.26s CPU      0.26s WALL (       1 calls)
     potinit      :      0.05s CPU      0.05s WALL (       1 calls)
     hinit0       :      0.09s CPU      0.09s WALL (       1 calls)

     Called by electrons:
     c_bands      :      3.89s CPU      4.04s WALL (       7 calls)
     sum_band     :      0.64s CPU      0.66s WALL (       7 calls)
     v_of_rho     :      0.08s CPU      0.08s WALL (       7 calls)
     newd         :      0.04s CPU      0.05s WALL (       7 calls)
     PAW_pot      :      0.18s CPU      0.19s WALL (       7 calls)
     mix_rho      :      0.01s CPU      0.01s WALL (       7 calls)

     Called by c_bands:
     init_us_2    :      0.18s CPU      0.18s WALL (     544 calls)
     cegterg      :      3.67s CPU      3.81s WALL (     224 calls)

     Called by sum_band:
     sum_band:bec :      0.00s CPU      0.00s WALL (     224 calls)
     addusdens    :      0.04s CPU      0.04s WALL (       7 calls)

     Called by *egterg:
     h_psi        :      2.83s CPU      2.94s WALL (     743 calls)
     s_psi        :      0.19s CPU      0.20s WALL (     743 calls)
     g_psi        :      0.03s CPU      0.03s WALL (     487 calls)
     cdiaghg      :      0.07s CPU      0.07s WALL (     679 calls)

     Called by h_psi:
     h_psi:pot    :      2.80s CPU      2.91s WALL (     743 calls)
     h_psi:calbec :      0.29s CPU      0.30s WALL (     743 calls)
     vloc_psi     :      2.32s CPU      2.40s WALL (     743 calls)
     add_vuspsi   :      0.20s CPU      0.20s WALL (     743 calls)

     General routines
     calbec       :      0.46s CPU      0.49s WALL (    1127 calls)
     fft          :      0.06s CPU      0.06s WALL (     103 calls)
     ffts         :      0.00s CPU      0.00s WALL (       7 calls)
     fftw         :      2.50s CPU      2.59s WALL (   10168 calls)

     Parallel routines
     fft_scatt_xy :      0.30s CPU      0.31s WALL (   10278 calls)
     fft_scatt_yz :      0.77s CPU      0.80s WALL (   10278 calls)

     PWSCF        :      6.09s CPU      6.38s WALL


   This run was terminated on:  15:55:48  24Feb2020            

=------------------------------------------------------------------------------=
   JOB DONE.
=------------------------------------------------------------------------------=
