
     Program PWSCF v.6.4.1 starts on  9Mar2020 at  6:55:43 

     This program is part of the open-source Quantum ESPRESSO suite
     for quantum simulation of materials; please cite
         "P. Giannozzi et al., J. Phys.:Condens. Matter 21 395502 (2009);
         "P. Giannozzi et al., J. Phys.:Condens. Matter 29 465901 (2017);
          URL http://www.quantum-espresso.org", 
     in publications or presentations arising from this work. More details at
     http://www.quantum-espresso.org/quote

     Parallel version (MPI), running on     4 processors

     MPI processes distributed on     1 nodes
     R & G space division:  proc/nbgrp/npool/nimage =       4
     Reading input from wd/kpoints/file_000103.in
Warning: card &IONS ignored
Warning: card ION_DYNAMICS = 'BFGS', ignored
Warning: card / ignored
Warning: card &CELL ignored
Warning: card CELL_DYNAMICS = 'BFGS', ignored
Warning: card CELL_FACTOR = 2.0, ignored
Warning: card PRESS = 0.0, ignored
Warning: card / ignored

     Current dimensions of program PWSCF are:
     Max number of different atomic species (ntypx) = 10
     Max number of k-points (npk) =  40000
     Max angular momentum in pseudopotentials (lmaxx) =  3
               file Al.pbe-nl-kjpaw_psl.1.0.0.UPF: wavefunction(s)  3S 3P renormalized

     Subspace diagonalization in iterative solution of the eigenvalue problem:
     a serial algorithm will be used


     Parallelization info
     --------------------
     sticks:   dense  smooth     PW     G-vecs:    dense   smooth      PW
     Min         187     187     58                 3817     3817     650
     Max         188     188     59                 3820     3820     651
     Sum         749     749    233                15275    15275    2601



     bravais-lattice index     =            0
     lattice parameter (alat)  =       7.6356  a.u.
     unit-cell volume          =     445.1737 (a.u.)^3
     number of atoms/cell      =            4
     number of atomic types    =            1
     number of electrons       =        12.00
     number of Kohn-Sham states=           10
     kinetic-energy cutoff     =      40.0000  Ry
     charge density cutoff     =     160.0000  Ry
     convergence threshold     =      1.0E-06
     mixing beta               =       0.1000
     number of iterations used =           10  TF        mixing
     Exchange-correlation      = SLA PW PBX PBC ( 1  4  3  4 0 0)

     celldm(1)=   7.635600  celldm(2)=   0.000000  celldm(3)=   0.000000
     celldm(4)=   0.000000  celldm(5)=   0.000000  celldm(6)=   0.000000

     crystal axes: (cart. coord. in units of alat)
               a(1) = (   1.000000   0.000000   0.000000 )  
               a(2) = (   0.000000   1.000000   0.000000 )  
               a(3) = (   0.000000   0.000000   1.000000 )  

     reciprocal axes: (cart. coord. in units 2 pi/alat)
               b(1) = (  1.000000  0.000000  0.000000 )  
               b(2) = (  0.000000  1.000000  0.000000 )  
               b(3) = (  0.000000  0.000000  1.000000 )  


     PseudoPot. # 1 for Al read from file:
     /opt/pp/Al.pbe-nl-kjpaw_psl.1.0.0.UPF
     MD5 check sum: 1b67f78b73fe58c7924490f171ce8a1e
     Pseudo is Projector augmented-wave + core cor, Zval =  3.0
     Generated using "atomic" code by A. Dal Corso v.6.3
     Shape of augmentation charge: PSQ
     Using radial grid of 1135 points,  4 beta functions with: 
                l(1) =   0
                l(2) =   0
                l(3) =   1
                l(4) =   1
     Q(r) pseudized with 0 coefficients 


     atomic species   valence    mass     pseudopotential
        Al             3.00    26.98200     Al( 1.00)

     No symmetry found



   Cartesian axes

     site n.     atom                  positions (alat units)
         1           Al  tau(   1) = (  -0.0000654   0.0000190   0.0001361  )
         2           Al  tau(   2) = (   0.5001592   0.4996200   0.0001406  )
         3           Al  tau(   3) = (   0.4998143   0.0000610   0.5005910  )
         4           Al  tau(   4) = (  -0.0000400   0.5004374   0.5003674  )

     number of k points=    63  Marzari-Vanderbilt smearing, width (Ry)=  0.0010
                       cart. coord. in units 2pi/alat
        k(    1) = (   0.1000000   0.1000000   0.1000000), wk =   0.0320000
        k(    2) = (   0.1000000   0.1000000   0.3000000), wk =   0.0320000
        k(    3) = (   0.1000000   0.1000000  -0.5000000), wk =   0.0320000
        k(    4) = (   0.1000000   0.3000000   0.3000000), wk =   0.0320000
        k(    5) = (   0.1000000   0.3000000  -0.5000000), wk =   0.0320000
        k(    6) = (   0.1000000  -0.5000000  -0.5000000), wk =   0.0320000
        k(    7) = (   0.3000000   0.3000000   0.3000000), wk =   0.0320000
        k(    8) = (   0.3000000   0.3000000  -0.5000000), wk =   0.0320000
        k(    9) = (   0.3000000  -0.5000000  -0.5000000), wk =   0.0320000
        k(   10) = (  -0.5000000  -0.5000000  -0.5000000), wk =   0.0160000
        k(   11) = (  -0.1000000  -0.1000000   0.1000000), wk =   0.0320000
        k(   12) = (  -0.1000000   0.1000000  -0.1000000), wk =   0.0320000
        k(   13) = (   0.1000000  -0.1000000  -0.1000000), wk =   0.0320000
        k(   14) = (  -0.1000000  -0.1000000   0.3000000), wk =   0.0320000
        k(   15) = (  -0.1000000   0.1000000  -0.3000000), wk =   0.0320000
        k(   16) = (   0.1000000  -0.1000000  -0.3000000), wk =   0.0320000
        k(   17) = (   0.3000000  -0.1000000   0.1000000), wk =   0.0320000
        k(   18) = (  -0.3000000  -0.1000000  -0.1000000), wk =   0.0320000
        k(   19) = (   0.3000000   0.1000000  -0.1000000), wk =   0.0320000
        k(   20) = (  -0.3000000   0.1000000   0.1000000), wk =   0.0320000
        k(   21) = (  -0.1000000   0.3000000   0.1000000), wk =   0.0320000
        k(   22) = (  -0.1000000  -0.3000000  -0.1000000), wk =   0.0320000
        k(   23) = (   0.1000000   0.3000000  -0.1000000), wk =   0.0320000
        k(   24) = (   0.1000000  -0.3000000   0.1000000), wk =   0.0320000
        k(   25) = (  -0.1000000   0.1000000   0.5000000), wk =   0.0320000
        k(   26) = (  -0.5000000  -0.1000000   0.1000000), wk =   0.0320000
        k(   27) = (   0.5000000  -0.1000000  -0.1000000), wk =   0.0320000
        k(   28) = (  -0.1000000  -0.5000000   0.1000000), wk =   0.0320000
        k(   29) = (  -0.1000000   0.5000000  -0.1000000), wk =   0.0320000
        k(   30) = (  -0.1000000  -0.3000000   0.3000000), wk =   0.0320000
        k(   31) = (  -0.1000000   0.3000000  -0.3000000), wk =   0.0320000
        k(   32) = (   0.1000000  -0.3000000  -0.3000000), wk =   0.0320000
        k(   33) = (   0.3000000   0.1000000  -0.3000000), wk =   0.0320000
        k(   34) = (  -0.3000000  -0.1000000  -0.3000000), wk =   0.0320000
        k(   35) = (   0.3000000  -0.1000000   0.3000000), wk =   0.0320000
        k(   36) = (  -0.3000000   0.1000000   0.3000000), wk =   0.0320000
        k(   37) = (   0.3000000  -0.3000000   0.1000000), wk =   0.0320000
        k(   38) = (  -0.3000000  -0.3000000  -0.1000000), wk =   0.0320000
        k(   39) = (   0.3000000   0.3000000  -0.1000000), wk =   0.0320000
        k(   40) = (  -0.3000000   0.3000000   0.1000000), wk =   0.0320000
        k(   41) = (  -0.1000000   0.3000000   0.5000000), wk =   0.0320000
        k(   42) = (   0.3000000   0.1000000   0.5000000), wk =   0.0320000
        k(   43) = (   0.3000000  -0.1000000  -0.5000000), wk =   0.0320000
        k(   44) = (  -0.5000000  -0.3000000   0.1000000), wk =   0.0320000
        k(   45) = (   0.5000000  -0.3000000  -0.1000000), wk =   0.0320000
        k(   46) = (  -0.1000000  -0.5000000   0.3000000), wk =   0.0320000
        k(   47) = (  -0.1000000   0.5000000  -0.3000000), wk =   0.0320000
        k(   48) = (   0.3000000  -0.5000000   0.1000000), wk =   0.0320000
        k(   49) = (   0.3000000   0.5000000  -0.1000000), wk =   0.0320000
        k(   50) = (  -0.5000000   0.1000000   0.3000000), wk =   0.0320000
        k(   51) = (   0.5000000  -0.1000000   0.3000000), wk =   0.0320000
        k(   52) = (  -0.5000000   0.1000000   0.5000000), wk =   0.0320000
        k(   53) = (  -0.5000000   0.5000000   0.1000000), wk =   0.0320000
        k(   54) = (  -0.3000000  -0.3000000   0.3000000), wk =   0.0320000
        k(   55) = (  -0.3000000   0.3000000  -0.3000000), wk =   0.0320000
        k(   56) = (   0.3000000  -0.3000000  -0.3000000), wk =   0.0320000
        k(   57) = (  -0.3000000   0.3000000   0.5000000), wk =   0.0320000
        k(   58) = (  -0.5000000  -0.3000000   0.3000000), wk =   0.0320000
        k(   59) = (   0.5000000  -0.3000000  -0.3000000), wk =   0.0320000
        k(   60) = (  -0.3000000  -0.5000000   0.3000000), wk =   0.0320000
        k(   61) = (  -0.3000000   0.5000000  -0.3000000), wk =   0.0320000
        k(   62) = (  -0.5000000   0.3000000   0.5000000), wk =   0.0320000
        k(   63) = (  -0.5000000   0.5000000   0.3000000), wk =   0.0320000

     Dense  grid:    15275 G-vectors     FFT dimensions: (  32,  32,  32)

     Estimated max dynamical RAM per process >      10.73 MB

     Estimated total dynamical RAM >      42.91 MB

     Initial potential from superposition of free atoms

     starting charge   11.99084, renormalised to   12.00000
     Starting wfcs are   16 randomized atomic wfcs
     Checking if some PAW data can be deallocated... 

     total cpu time spent up to now is        1.2 secs

     Self-consistent Calculation

     iteration #  1     ecut=    40.00 Ry     beta= 0.10
     Davidson diagonalization with overlap
     ethr =  1.00E-02,  avg # of iterations =  3.1

     Threshold (ethr) on eigenvalues was too large:
     Diagonalizing with lowered threshold

     Davidson diagonalization with overlap
     ethr =  1.98E-04,  avg # of iterations =  3.5

     total cpu time spent up to now is        3.5 secs

     total energy              =    -158.00336467 Ry
     Harris-Foulkes estimate   =    -158.00419725 Ry
     estimated scf accuracy    <       0.02315305 Ry

     iteration #  2     ecut=    40.00 Ry     beta= 0.10
     Davidson diagonalization with overlap
     ethr =  1.93E-04,  avg # of iterations =  1.0

     total cpu time spent up to now is        4.3 secs

     total energy              =    -157.99726200 Ry
     Harris-Foulkes estimate   =    -158.00348886 Ry
     estimated scf accuracy    <       0.01995510 Ry

     iteration #  3     ecut=    40.00 Ry     beta= 0.10
     Davidson diagonalization with overlap
     ethr =  1.66E-04,  avg # of iterations =  1.0

     total cpu time spent up to now is        5.1 secs

     total energy              =    -157.99760370 Ry
     Harris-Foulkes estimate   =    -157.99765158 Ry
     estimated scf accuracy    <       0.00011788 Ry

     iteration #  4     ecut=    40.00 Ry     beta= 0.10
     Davidson diagonalization with overlap
     ethr =  9.82E-07,  avg # of iterations =  4.6

     total cpu time spent up to now is        6.8 secs

     total energy              =    -157.99766221 Ry
     Harris-Foulkes estimate   =    -157.99768111 Ry
     estimated scf accuracy    <       0.00007677 Ry

     iteration #  5     ecut=    40.00 Ry     beta= 0.10
     Davidson diagonalization with overlap
     ethr =  6.40E-07,  avg # of iterations =  1.0

     total cpu time spent up to now is        7.6 secs

     total energy              =    -157.99761413 Ry
     Harris-Foulkes estimate   =    -157.99766458 Ry
     estimated scf accuracy    <       0.00005229 Ry

     iteration #  6     ecut=    40.00 Ry     beta= 0.10
     Davidson diagonalization with overlap
     ethr =  4.36E-07,  avg # of iterations =  2.0

     total cpu time spent up to now is        8.4 secs

     total energy              =    -157.99762426 Ry
     Harris-Foulkes estimate   =    -157.99762322 Ry
     estimated scf accuracy    <       0.00000370 Ry

     iteration #  7     ecut=    40.00 Ry     beta= 0.10
     Davidson diagonalization with overlap
     ethr =  3.08E-08,  avg # of iterations =  1.5

     total cpu time spent up to now is        9.2 secs

     total energy              =    -157.99762564 Ry
     Harris-Foulkes estimate   =    -157.99762445 Ry
     estimated scf accuracy    <       0.00000336 Ry

     iteration #  8     ecut=    40.00 Ry     beta= 0.10
     Davidson diagonalization with overlap
     ethr =  2.80E-08,  avg # of iterations =  2.0

     total cpu time spent up to now is       10.0 secs

     End of self-consistent calculation

          k = 0.1000 0.1000 0.1000 (  1899 PWs)   bands (ev):

    -2.9624   4.0420   4.0428   4.0434   7.7420   7.7430   7.7439  10.7607
    10.7621  10.7632

          k = 0.1000 0.1000 0.3000 (  1906 PWs)   bands (ev):

    -2.2400   1.3147   4.7248   4.7258   8.0303   8.0340   8.5348   8.5365
    11.3554  11.7952

          k = 0.1000 0.1000-0.5000 (  1918 PWs)   bands (ev):

    -0.8100  -0.8024   5.9691   5.9692   6.2096   6.2099   9.5128   9.5128
    10.1724  10.1727

          k = 0.1000 0.3000 0.3000 (  1902 PWs)   bands (ev):

    -1.5212   2.0152   2.0161   5.3097   5.5748   8.7945   8.7966   9.1490
    12.1855  12.1904

          k = 0.1000 0.3000-0.5000 (  1890 PWs)   bands (ev):

    -0.0983  -0.0907   3.4025   3.4103   6.7751   6.7833  10.1383  10.1469
    10.4834  10.4907

          k = 0.1000-0.5000-0.5000 (  1908 PWs)   bands (ev):

     1.3142   1.3146   1.3219   1.3223   8.1268   8.1273   8.1353   8.1358
    11.8286  11.8325

          k = 0.3000 0.3000 0.3000 (  1914 PWs)   bands (ev):

    -0.8060   2.7121   2.7129   2.7135   6.1658   6.1668   6.1676   9.5490
    13.0702  13.0709

          k = 0.3000 0.3000-0.5000 (  1898 PWs)   bands (ev):

     0.6100   0.6177   3.9822   3.9822   4.2302   4.2305   7.5247   7.5328
    14.1691  14.5678

          k = 0.3000-0.5000-0.5000 (  1900 PWs)   bands (ev):

     2.0155   2.0158   2.0232   2.0236   5.4846   5.4850   5.4926   5.4930
    15.6198  15.6253

          k =-0.5000-0.5000-0.5000 (  1904 PWs)   bands (ev):

     3.3107   3.3108   3.3108   3.3109   3.5269   3.5271   3.5272   3.5273
    19.3093  19.3095

          k =-0.1000-0.1000 0.1000 (  1899 PWs)   bands (ev):

    -2.9624   4.0422   4.0427   4.0433   7.7422   7.7429   7.7437  10.7610
    10.7619  10.7630

          k =-0.1000 0.1000-0.1000 (  1899 PWs)   bands (ev):

    -2.9624   4.0423   4.0428   4.0431   7.7424   7.7430   7.7435  10.7612
    10.7621  10.7627

          k = 0.1000-0.1000-0.1000 (  1899 PWs)   bands (ev):

    -2.9624   4.0423   4.0427   4.0432   7.7423   7.7429   7.7436  10.7611
    10.7619  10.7629

          k =-0.1000-0.1000 0.3000 (  1906 PWs)   bands (ev):

    -2.2400   1.3147   4.7248   4.7258   8.0303   8.0340   8.5348   8.5365
    11.3554  11.7950

          k =-0.1000 0.1000-0.3000 (  1906 PWs)   bands (ev):

    -2.2400   1.3147   4.7251   4.7255   8.0313   8.0330   8.5353   8.5361
    11.3554  11.7951

          k = 0.1000-0.1000-0.3000 (  1906 PWs)   bands (ev):

    -2.2400   1.3147   4.7251   4.7255   8.0313   8.0329   8.5353   8.5361
    11.3554  11.7963

          k = 0.3000-0.1000 0.1000 (  1906 PWs)   bands (ev):

    -2.2400   1.3147   4.7251   4.7255   8.0313   8.0330   8.5353   8.5361
    11.3554  11.7955

          k =-0.3000-0.1000-0.1000 (  1906 PWs)   bands (ev):

    -2.2400   1.3147   4.7249   4.7257   8.0306   8.0337   8.5349   8.5364
    11.3554  11.7949

          k = 0.3000 0.1000-0.1000 (  1906 PWs)   bands (ev):

    -2.2400   1.3147   4.7251   4.7255   8.0313   8.0330   8.5353   8.5361
    11.3554  11.7948

          k =-0.3000 0.1000 0.1000 (  1906 PWs)   bands (ev):

    -2.2400   1.3147   4.7249   4.7257   8.0306   8.0337   8.5349   8.5364
    11.3554  11.7949

          k =-0.1000 0.3000 0.1000 (  1906 PWs)   bands (ev):

    -2.2400   1.3147   4.7252   4.7254   8.0319   8.0324   8.5356   8.5358
    11.3554  11.7946

          k =-0.1000-0.3000-0.1000 (  1906 PWs)   bands (ev):

    -2.2400   1.3147   4.7250   4.7255   8.0312   8.0330   8.5352   8.5361
    11.3554  11.7944

          k = 0.1000 0.3000-0.1000 (  1906 PWs)   bands (ev):

    -2.2400   1.3147   4.7252   4.7254   8.0319   8.0324   8.5356   8.5358
    11.3554  11.7944

          k = 0.1000-0.3000 0.1000 (  1906 PWs)   bands (ev):

    -2.2400   1.3147   4.7250   4.7255   8.0312   8.0330   8.5352   8.5361
    11.3554  11.7944

          k =-0.1000 0.1000 0.5000 (  1918 PWs)   bands (ev):

    -0.8100  -0.8024   5.9691   5.9693   6.2097   6.2098   9.5127   9.5129
    10.1725  10.1727

          k =-0.5000-0.1000 0.1000 (  1918 PWs)   bands (ev):

    -0.8066  -0.8058   5.9692   5.9693   6.2096   6.2098   9.5128   9.5128
    10.1725  10.1726

          k = 0.5000-0.1000-0.1000 (  1918 PWs)   bands (ev):

    -0.8066  -0.8058   5.9692   5.9693   6.2096   6.2098   9.5128   9.5128
    10.1725  10.1726

          k =-0.1000-0.5000 0.1000 (  1918 PWs)   bands (ev):

    -0.8064  -0.8061   5.9692   5.9693   6.2096   6.2097   9.5128   9.5128
    10.1725  10.1726

          k =-0.1000 0.5000-0.1000 (  1918 PWs)   bands (ev):

    -0.8064  -0.8061   5.9692   5.9693   6.2096   6.2098   9.5128   9.5128
    10.1725  10.1726

          k =-0.1000-0.3000 0.3000 (  1902 PWs)   bands (ev):

    -1.5212   2.0154   2.0159   5.3097   5.5747   8.7950   8.7961   9.1490
    12.1871  12.1894

          k =-0.1000 0.3000-0.3000 (  1902 PWs)   bands (ev):

    -1.5212   2.0154   2.0159   5.3097   5.5747   8.7950   8.7961   9.1490
    12.1870  12.1894

          k = 0.1000-0.3000-0.3000 (  1902 PWs)   bands (ev):

    -1.5212   2.0152   2.0161   5.3097   5.5747   8.7945   8.7966   9.1490
    12.1857  12.1900

          k = 0.3000 0.1000-0.3000 (  1902 PWs)   bands (ev):

    -1.5212   2.0156   2.0158   5.3097   5.5748   8.7954   8.7957   9.1490
    12.1879  12.1886

          k =-0.3000-0.1000-0.3000 (  1902 PWs)   bands (ev):

    -1.5212   2.0154   2.0159   5.3097   5.5747   8.7949   8.7961   9.1490
    12.1870  12.1887

          k = 0.3000-0.1000 0.3000 (  1902 PWs)   bands (ev):

    -1.5212   2.0154   2.0159   5.3097   5.5747   8.7950   8.7961   9.1490
    12.1870  12.1888

          k =-0.3000 0.1000 0.3000 (  1902 PWs)   bands (ev):

    -1.5212   2.0156   2.0158   5.3097   5.5747   8.7954   8.7957   9.1490
    12.1877  12.1887

          k = 0.3000-0.3000 0.1000 (  1902 PWs)   bands (ev):

    -1.5212   2.0154   2.0159   5.3097   5.5748   8.7950   8.7961   9.1490
    12.1872  12.1895

          k =-0.3000-0.3000-0.1000 (  1902 PWs)   bands (ev):

    -1.5212   2.0151   2.0162   5.3097   5.5747   8.7944   8.7968   9.1490
    12.1858  12.1908

          k = 0.3000 0.3000-0.1000 (  1902 PWs)   bands (ev):

    -1.5212   2.0151   2.0162   5.3097   5.5747   8.7944   8.7968   9.1490
    12.1856  12.1908

          k =-0.3000 0.3000 0.1000 (  1902 PWs)   bands (ev):

    -1.5212   2.0154   2.0159   5.3097   5.5747   8.7950   8.7961   9.1490
    12.1871  12.1895

          k =-0.1000 0.3000 0.5000 (  1890 PWs)   bands (ev):

    -0.0983  -0.0907   3.4025   3.4103   6.7751   6.7833  10.1383  10.1469
    10.4834  10.4907

          k = 0.3000 0.1000 0.5000 (  1890 PWs)   bands (ev):

    -0.0983  -0.0907   3.4025   3.4103   6.7751   6.7833  10.1383  10.1469
    10.4834  10.4907

          k = 0.3000-0.1000-0.5000 (  1890 PWs)   bands (ev):

    -0.0983  -0.0907   3.4025   3.4103   6.7751   6.7833  10.1383  10.1469
    10.4834  10.4907

          k =-0.5000-0.3000 0.1000 (  1890 PWs)   bands (ev):

    -0.0950  -0.0941   3.4060   3.4069   6.7787   6.7796  10.1421  10.1431
    10.4866  10.4874

          k = 0.5000-0.3000-0.1000 (  1890 PWs)   bands (ev):

    -0.0950  -0.0941   3.4060   3.4069   6.7787   6.7796  10.1421  10.1431
    10.4866  10.4874

          k =-0.1000-0.5000 0.3000 (  1890 PWs)   bands (ev):

    -0.0947  -0.0944   3.4063   3.4066   6.7790   6.7793  10.1425  10.1428
    10.4869  10.4872

          k =-0.1000 0.5000-0.3000 (  1890 PWs)   bands (ev):

    -0.0947  -0.0944   3.4063   3.4066   6.7790   6.7793  10.1425  10.1428
    10.4869  10.4872

          k = 0.3000-0.5000 0.1000 (  1890 PWs)   bands (ev):

    -0.0947  -0.0944   3.4063   3.4066   6.7790   6.7793  10.1425  10.1428
    10.4869  10.4872

          k = 0.3000 0.5000-0.1000 (  1890 PWs)   bands (ev):

    -0.0947  -0.0944   3.4063   3.4066   6.7790   6.7793  10.1424  10.1428
    10.4869  10.4872

          k =-0.5000 0.1000 0.3000 (  1890 PWs)   bands (ev):

    -0.0950  -0.0941   3.4060   3.4069   6.7787   6.7796  10.1421  10.1431
    10.4866  10.4874

          k = 0.5000-0.1000 0.3000 (  1890 PWs)   bands (ev):

    -0.0950  -0.0941   3.4060   3.4069   6.7787   6.7796  10.1421  10.1431
    10.4866  10.4874

          k =-0.5000 0.1000 0.5000 (  1908 PWs)   bands (ev):

     1.3140   1.3148   1.3216   1.3226   8.1266   8.1275   8.1349   8.1361
    11.8255  11.8309

          k =-0.5000 0.5000 0.1000 (  1908 PWs)   bands (ev):

     1.3174   1.3179   1.3186   1.3191   8.1300   8.1307   8.1319   8.1326
    11.8284  11.8288

          k =-0.3000-0.3000 0.3000 (  1914 PWs)   bands (ev):

    -0.8060   2.7123   2.7128   2.7134   6.1660   6.1667   6.1675   9.5490
    13.0704  13.0710

          k =-0.3000 0.3000-0.3000 (  1914 PWs)   bands (ev):

    -0.8060   2.7124   2.7129   2.7132   6.1662   6.1668   6.1672   9.5490
    13.0702  13.0710

          k = 0.3000-0.3000-0.3000 (  1914 PWs)   bands (ev):

    -0.8060   2.7123   2.7128   2.7134   6.1661   6.1667   6.1674   9.5490
    13.0702  13.0712

          k =-0.3000 0.3000 0.5000 (  1898 PWs)   bands (ev):

     0.6100   0.6177   3.9821   3.9823   4.2303   4.2304   7.5247   7.5328
    14.1692  14.5667

          k =-0.5000-0.3000 0.3000 (  1898 PWs)   bands (ev):

     0.6134   0.6143   3.9822   3.9823   4.2302   4.2304   7.5283   7.5292
    14.1691  14.5677

          k = 0.5000-0.3000-0.3000 (  1898 PWs)   bands (ev):

     0.6134   0.6143   3.9822   3.9823   4.2302   4.2304   7.5283   7.5292
    14.5674  14.5676

          k =-0.3000-0.5000 0.3000 (  1898 PWs)   bands (ev):

     0.6137   0.6140   3.9822   3.9823   4.2303   4.2303   7.5286   7.5289
    14.5676  14.5676

          k =-0.3000 0.5000-0.3000 (  1898 PWs)   bands (ev):

     0.6137   0.6140   3.9822   3.9823   4.2302   4.2304   7.5286   7.5289
    14.5667  14.5676

          k =-0.5000 0.3000 0.5000 (  1900 PWs)   bands (ev):

     2.0153   2.0160   2.0229   2.0239   5.4844   5.4852   5.4922   5.4933
    15.6208  15.6268

          k =-0.5000 0.5000 0.3000 (  1900 PWs)   bands (ev):

     2.0187   2.0191   2.0199   2.0203   5.4879   5.4884   5.4892   5.4897
    15.6225  15.6230

     the Fermi energy is     8.0363 ev

!    total energy              =    -157.99762643 Ry
     Harris-Foulkes estimate   =    -157.99762623 Ry
     estimated scf accuracy    <       0.00000016 Ry

     total all-electron energy =     -1942.568749 Ry

     The total energy is the sum of the following terms:

     one-electron contribution =      12.66382463 Ry
     hartree contribution      =       0.02356241 Ry
     xc contribution           =     -10.36189779 Ry
     ewald contribution        =     -21.61650270 Ry
     one-center paw contrib.   =    -138.70651043 Ry
     smearing contrib. (-TS)   =      -0.00010254 Ry

     convergence has been achieved in   8 iterations

     Forces acting on atoms (cartesian axes, Ry/au):

     atom    1 type  1   force =     0.00002323   -0.00005933    0.00031291
     atom    2 type  1   force =     0.00022852   -0.00066487    0.00032695
     atom    3 type  1   force =    -0.00032302    0.00004559   -0.00015569
     atom    4 type  1   force =     0.00007128    0.00067861   -0.00048416

     Total force =     0.001238     Total SCF correction =     0.000041


     Computing stress (Cartesian axis) and pressure

          total   stress  (Ry/bohr**3)                   (kbar)     P=   -4.11
  -0.00002802   0.00000001  -0.00000002         -4.12      0.00     -0.00
   0.00000001  -0.00002772   0.00000010          0.00     -4.08      0.02
  -0.00000002   0.00000010  -0.00002809         -0.00      0.02     -4.13


     Writing output data file fe_scf_fcc_2.save/

     init_run     :      0.58s CPU      0.63s WALL (       1 calls)
     electrons    :      8.00s CPU      8.76s WALL (       1 calls)
     forces       :      0.12s CPU      0.13s WALL (       1 calls)
     stress       :      0.25s CPU      0.25s WALL (       1 calls)

     Called by init_run:
     wfcinit      :      0.42s CPU      0.46s WALL (       1 calls)
     potinit      :      0.07s CPU      0.07s WALL (       1 calls)
     hinit0       :      0.08s CPU      0.08s WALL (       1 calls)

     Called by electrons:
     c_bands      :      6.51s CPU      7.16s WALL (       9 calls)
     sum_band     :      0.98s CPU      1.05s WALL (       9 calls)
     v_of_rho     :      0.04s CPU      0.05s WALL (       9 calls)
     newd         :      0.05s CPU      0.05s WALL (       9 calls)
     PAW_pot      :      0.48s CPU      0.51s WALL (       9 calls)
     mix_rho      :      0.01s CPU      0.01s WALL (       9 calls)

     Called by c_bands:
     init_us_2    :      0.15s CPU      0.17s WALL (    1323 calls)
     cegterg      :      6.14s CPU      6.77s WALL (     567 calls)

     Called by sum_band:
     sum_band:bec :      0.00s CPU      0.00s WALL (     567 calls)
     addusdens    :      0.02s CPU      0.03s WALL (       9 calls)

     Called by *egterg:
     h_psi        :      4.43s CPU      4.88s WALL (    1870 calls)
     s_psi        :      0.38s CPU      0.41s WALL (    1870 calls)
     g_psi        :      0.03s CPU      0.03s WALL (    1240 calls)
     cdiaghg      :      0.34s CPU      0.39s WALL (    1744 calls)

     Called by h_psi:
     h_psi:pot    :      4.41s CPU      4.86s WALL (    1870 calls)
     h_psi:calbec :      0.64s CPU      0.71s WALL (    1870 calls)
     vloc_psi     :      3.39s CPU      3.72s WALL (    1870 calls)
     add_vuspsi   :      0.38s CPU      0.43s WALL (    1870 calls)

     General routines
     calbec       :      0.99s CPU      1.09s WALL (    2752 calls)
     fft          :      0.05s CPU      0.05s WALL (     125 calls)
     ffts         :      0.00s CPU      0.00s WALL (       9 calls)
     fftw         :      3.65s CPU      3.97s WALL (   35798 calls)

     Parallel routines
     fft_scatt_xy :      0.52s CPU      0.57s WALL (   35932 calls)
     fft_scatt_yz :      1.85s CPU      1.99s WALL (   35932 calls)

     PWSCF        :      9.51s CPU     10.44s WALL


   This run was terminated on:   6:55:54   9Mar2020            

=------------------------------------------------------------------------------=
   JOB DONE.
=------------------------------------------------------------------------------=
