
     Program PWSCF v.6.3 starts on  9Mar2020 at  7:48:13 

     This program is part of the open-source Quantum ESPRESSO suite
     for quantum simulation of materials; please cite
         "P. Giannozzi et al., J. Phys.:Condens. Matter 21 395502 (2009);
         "P. Giannozzi et al., J. Phys.:Condens. Matter 29 465901 (2017);
          URL http://www.quantum-espresso.org", 
     in publications or presentations arising from this work. More details at
     http://www.quantum-espresso.org/quote

     Parallel version (MPI & OpenMP), running on      20 processor cores
     Number of MPI processes:                20
     Threads/MPI process:                     1

     MPI processes distributed on     1 nodes
     R & G space division:  proc/nbgrp/npool/nimage =      20
     Reading input from wd/kpoints/file_000096.in
Warning: card &IONS ignored
Warning: card ION_DYNAMICS = 'BFGS', ignored
Warning: card / ignored
Warning: card &CELL ignored
Warning: card CELL_DYNAMICS = 'BFGS', ignored
Warning: card CELL_FACTOR = 2.0, ignored
Warning: card PRESS = 0.0, ignored
Warning: card / ignored

     Current dimensions of program PWSCF are:
     Max number of different atomic species (ntypx) = 10
     Max number of k-points (npk) =  40000
     Max angular momentum in pseudopotentials (lmaxx) =  3
     Message from routine read_upf::
     Pseudo file /rds/homes/b/bxp912/pp/Al.pbe-nl-kjpaw_psl.1.0.0.UPF has been successfully fixed on the fly.
To avoid this message in the future you can permanently fix 
 your pseudo files following instructions given in: 
https://gitlab.com/QEF/q-e/blob/master/upftools/how_to_fix_upf.md
               file Al.pbe-nl-kjpaw_psl.1.0.0.UPF: wavefunction(s)  3S 3P renormalized

     Subspace diagonalization in iterative solution of the eigenvalue problem:
     a serial algorithm will be used

 
     Parallelization info
     --------------------
     sticks:   dense  smooth     PW     G-vecs:    dense   smooth      PW
     Min         148     148     41                 6092     6092     891
     Max         149     149     42                 6097     6097     894
     Sum        2965    2965    829               121865   121865   17845
 


     bravais-lattice index     =            0
     lattice parameter (alat)  =      15.2712  a.u.
     unit-cell volume          =    3561.3897 (a.u.)^3
     number of atoms/cell      =           32
     number of atomic types    =            1
     number of electrons       =        96.00
     number of Kohn-Sham states=           58
     kinetic-energy cutoff     =      40.0000  Ry
     charge density cutoff     =     160.0000  Ry
     convergence threshold     =      1.0E-06
     mixing beta               =       0.1000
     number of iterations used =           10  TF        mixing
     Exchange-correlation      = SLA PW PBX PBC ( 1  4  3  4 0 0)

     celldm(1)=  15.271200  celldm(2)=   0.000000  celldm(3)=   0.000000
     celldm(4)=   0.000000  celldm(5)=   0.000000  celldm(6)=   0.000000

     crystal axes: (cart. coord. in units of alat)
               a(1) = (   1.000000   0.000000   0.000000 )  
               a(2) = (   0.000000   1.000000   0.000000 )  
               a(3) = (   0.000000   0.000000   1.000000 )  

     reciprocal axes: (cart. coord. in units 2 pi/alat)
               b(1) = (  1.000000  0.000000  0.000000 )  
               b(2) = (  0.000000  1.000000  0.000000 )  
               b(3) = (  0.000000  0.000000  1.000000 )  


     PseudoPot. # 1 for Al read from file:
     /rds/homes/b/bxp912/pp/Al.pbe-nl-kjpaw_psl.1.0.0.UPF
     MD5 check sum: 339dbea23cf3ab9a065ad45c0f9085d7
     Pseudo is Projector augmented-wave + core cor, Zval =  3.0
     Generated using "atomic" code by A. Dal Corso v.5.1
     Shape of augmentation charge: PSQ
     Using radial grid of 1135 points,  4 beta functions with: 
                l(1) =   0
                l(2) =   0
                l(3) =   1
                l(4) =   1
     Q(r) pseudized with 0 coefficients 


     atomic species   valence    mass     pseudopotential
        Al             3.00    26.98200     Al( 1.00)

     No symmetry found



   Cartesian axes

     site n.     atom                  positions (alat units)
         1           Al  tau(   1) = (  -0.0000327   0.0000095   0.0000680  )
         2           Al  tau(   2) = (   0.2500796   0.2498100   0.0000703  )
         3           Al  tau(   3) = (   0.2499071   0.0000305   0.2502955  )
         4           Al  tau(   4) = (  -0.0000200   0.2502187   0.2501837  )
         5           Al  tau(   5) = (   0.0002558   0.0002521   0.4998810  )
         6           Al  tau(   6) = (   0.2501194   0.2498326   0.5000036  )
         7           Al  tau(   7) = (   0.2500278   0.0001539   0.7498880  )
         8           Al  tau(   8) = (   0.0000549   0.2501136   0.7502101  )
         9           Al  tau(   9) = (   0.0002375   0.5001078  -0.0000154  )
        10           Al  tau(  10) = (   0.2501396   0.7501762   0.0004054  )
        11           Al  tau(  11) = (   0.2501891   0.5001088   0.2502510  )
        12           Al  tau(  12) = (   0.0000383   0.7500455   0.2500253  )
        13           Al  tau(  13) = (   0.0001102   0.5001562   0.5000990  )
        14           Al  tau(  14) = (   0.2499640   0.7500632   0.4998706  )
        15           Al  tau(  15) = (   0.2503366   0.4997894   0.7496960  )
        16           Al  tau(  16) = (  -0.0003280   0.7497055   0.7499931  )
        17           Al  tau(  17) = (   0.5002037  -0.0001004  -0.0000387  )
        18           Al  tau(  18) = (   0.7499123   0.2500941  -0.0002332  )
        19           Al  tau(  19) = (   0.7496354  -0.0000959   0.2500771  )
        20           Al  tau(  20) = (   0.4999751   0.2499614   0.2498317  )
        21           Al  tau(  21) = (   0.4999211   0.0002929   0.4999726  )
        22           Al  tau(  22) = (   0.7500684   0.2496958   0.4999523  )
        23           Al  tau(  23) = (   0.7500357  -0.0000687   0.7500257  )
        24           Al  tau(  24) = (   0.5000114   0.2498864   0.7499948  )
        25           Al  tau(  25) = (   0.4998526   0.5001156  -0.0002192  )
        26           Al  tau(  26) = (   0.7497723   0.7500978   0.0002736  )
        27           Al  tau(  27) = (   0.7501007   0.4998018   0.2499462  )
        28           Al  tau(  28) = (   0.5000878   0.7497908   0.2502093  )
        29           Al  tau(  29) = (   0.4996761   0.5001027   0.5000404  )
        30           Al  tau(  30) = (   0.7501658   0.7499872   0.4998547  )
        31           Al  tau(  31) = (   0.7499472   0.5000095   0.7501393  )
        32           Al  tau(  32) = (   0.5000142   0.7499486   0.7499177  )

     number of k points=    14  Marzari-Vanderbilt smearing, width (Ry)=  0.0070
                       cart. coord. in units 2pi/alat
        k(    1) = (   0.1666667   0.1666667   0.1666667), wk =   0.1481481
        k(    2) = (   0.1666667   0.1666667  -0.5000000), wk =   0.1481481
        k(    3) = (   0.1666667  -0.5000000  -0.5000000), wk =   0.1481481
        k(    4) = (  -0.5000000  -0.5000000  -0.5000000), wk =   0.0740741
        k(    5) = (  -0.1666667  -0.1666667   0.1666667), wk =   0.1481481
        k(    6) = (  -0.1666667   0.1666667  -0.1666667), wk =   0.1481481
        k(    7) = (   0.1666667  -0.1666667  -0.1666667), wk =   0.1481481
        k(    8) = (  -0.1666667   0.1666667   0.5000000), wk =   0.1481481
        k(    9) = (  -0.5000000  -0.1666667   0.1666667), wk =   0.1481481
        k(   10) = (   0.5000000  -0.1666667  -0.1666667), wk =   0.1481481
        k(   11) = (  -0.1666667  -0.5000000   0.1666667), wk =   0.1481481
        k(   12) = (  -0.1666667   0.5000000  -0.1666667), wk =   0.1481481
        k(   13) = (  -0.5000000   0.1666667   0.5000000), wk =   0.1481481
        k(   14) = (  -0.5000000   0.5000000   0.1666667), wk =   0.1481481

     Dense  grid:   121865 G-vectors     FFT dimensions: (  64,  64,  64)

     Estimated max dynamical RAM per process >      30.61 MB

     Estimated total dynamical RAM >     612.26 MB

     Initial potential from superposition of free atoms

     starting charge   95.92671, renormalised to   96.00000
     Starting wfcs are  128 randomized atomic wfcs
     Checking if some PAW data can be deallocated... 

     total cpu time spent up to now is        2.3 secs

     Self-consistent Calculation

     iteration #  1     ecut=    40.00 Ry     beta= 0.10
     Davidson diagonalization with overlap
     ethr =  1.00E-02,  avg # of iterations =  3.0

     Threshold (ethr) on eigenvalues was too large:
     Diagonalizing with lowered threshold

     Davidson diagonalization with overlap
     ethr =  1.93E-04,  avg # of iterations =  3.6

     total cpu time spent up to now is        8.2 secs

     total energy              =   -1264.11059067 Ry
     Harris-Foulkes estimate   =   -1264.11673515 Ry
     estimated scf accuracy    <       0.18067122 Ry

     iteration #  2     ecut=    40.00 Ry     beta= 0.10
     Davidson diagonalization with overlap
     ethr =  1.88E-04,  avg # of iterations =  1.0

     total cpu time spent up to now is       10.0 secs

     total energy              =   -1264.06377352 Ry
     Harris-Foulkes estimate   =   -1264.11142915 Ry
     estimated scf accuracy    <       0.15695117 Ry

     iteration #  3     ecut=    40.00 Ry     beta= 0.10
     Davidson diagonalization with overlap
     ethr =  1.63E-04,  avg # of iterations =  1.0

     total cpu time spent up to now is       12.3 secs

     total energy              =   -1264.06672488 Ry
     Harris-Foulkes estimate   =   -1264.06680987 Ry
     estimated scf accuracy    <       0.00065228 Ry

     iteration #  4     ecut=    40.00 Ry     beta= 0.10
     Davidson diagonalization with overlap
     ethr =  6.79E-07,  avg # of iterations =  4.9

     total cpu time spent up to now is       17.8 secs

     total energy              =   -1264.06732089 Ry
     Harris-Foulkes estimate   =   -1264.06750466 Ry
     estimated scf accuracy    <       0.00035925 Ry

     iteration #  5     ecut=    40.00 Ry     beta= 0.10
     Davidson diagonalization with overlap
     ethr =  3.74E-07,  avg # of iterations =  1.9

     total cpu time spent up to now is       19.9 secs

     total energy              =   -1264.06712622 Ry
     Harris-Foulkes estimate   =   -1264.06733125 Ry
     estimated scf accuracy    <       0.00023537 Ry

     iteration #  6     ecut=    40.00 Ry     beta= 0.10
     Davidson diagonalization with overlap
     ethr =  2.45E-07,  avg # of iterations =  2.0

     total cpu time spent up to now is       22.4 secs

     total energy              =   -1264.06719054 Ry
     Harris-Foulkes estimate   =   -1264.06719189 Ry
     estimated scf accuracy    <       0.00001430 Ry

     iteration #  7     ecut=    40.00 Ry     beta= 0.10
     Davidson diagonalization with overlap
     ethr =  1.49E-08,  avg # of iterations =  1.8

     total cpu time spent up to now is       25.9 secs

     total energy              =   -1264.06718098 Ry
     Harris-Foulkes estimate   =   -1264.06719150 Ry
     estimated scf accuracy    <       0.00000607 Ry

     iteration #  8     ecut=    40.00 Ry     beta= 0.10
     Davidson diagonalization with overlap
     ethr =  6.32E-09,  avg # of iterations =  2.1

     total cpu time spent up to now is       29.2 secs

     total energy              =   -1264.06718208 Ry
     Harris-Foulkes estimate   =   -1264.06718181 Ry
     estimated scf accuracy    <       0.00000115 Ry

     iteration #  9     ecut=    40.00 Ry     beta= 0.10
     Davidson diagonalization with overlap
     ethr =  1.20E-09,  avg # of iterations =  1.8

     total cpu time spent up to now is       31.1 secs

     End of self-consistent calculation

          k = 0.1667 0.1667 0.1667 ( 15261 PWs)   bands (ev):

    -3.0436  -1.5445  -1.5420  -1.5390  -0.0597  -0.0588  -0.0566  -0.0555
    -0.0541  -0.0506   1.4108   1.4120   1.4141   1.4154   1.4164   1.4171
     1.4193   2.8650   2.8668   2.8681   2.8688   2.8707   2.8733   4.2329
     4.2335   4.2342   4.3298   4.3305   4.3313   5.6414   5.6417   5.6446
     5.6454   5.6467   5.6480   5.7579   7.0587   7.0591   7.0608   7.0625
     7.0634   7.0642   7.0722   7.0747   7.0779   7.4044   7.4051   7.4059
     8.4759   8.4765   8.4782   8.4795   8.4808   8.4813   8.8155   8.8164
     8.8182   8.8197

          k = 0.1667 0.1667-0.5000 ( 15188 PWs)   bands (ev):

    -2.5424  -2.5401  -1.0464  -1.0456  -1.0442  -1.0426   0.4324   0.4342
     0.4358   0.4368   0.4384   0.4390   1.8945   1.8958   1.9005   1.9011
     1.9028   1.9036   3.3435   3.3445   3.3449   3.3452   3.3476   3.3494
     4.7050   4.7055   4.7073   4.7080   4.7715   4.7728   4.7729   4.7740
     4.8020   4.8032   6.1385   6.1392   6.1407   6.1424   6.2226   6.2231
     6.2238   6.2247   7.5387   7.5393   7.5409   7.5426   7.6399   7.6412
     7.8536   7.8543   7.8558   7.8568   8.9773   8.9775   8.9788   8.9795
     9.3371   9.3384

          k = 0.1667-0.5000-0.5000 ( 15204 PWs)   bands (ev):

    -2.0429  -2.0419  -2.0396  -2.0382  -0.5514  -0.5505  -0.5481  -0.5468
     0.9240   0.9250   0.9273   0.9287   2.3764   2.3777   2.3785   2.3794
     2.3803   2.3824   2.3834   2.3840   3.8161   3.8174   3.8182   3.8192
     3.8199   3.8222   3.8231   3.8238   5.1713   5.1723   5.1748   5.1763
     5.2748   5.2760   5.2768   5.2777   5.2788   5.2808   5.2818   5.2825
     6.6671   6.6677   6.6690   6.6697   8.0985   8.0991   8.1003   8.1011
     8.4093   8.4102   8.4122   8.4134   9.3870   9.3891   9.3900   9.3911
     9.3922   9.3946

          k =-0.5000-0.5000-0.5000 ( 15192 PWs)   bands (ev):

    -1.5464  -1.5456  -1.5432  -1.5426  -1.5413  -1.5396  -1.5391  -1.5365
     2.8557   2.8561   2.8573   2.8580   2.8592   2.8601   2.8603   2.8613
     2.8615   2.8622   2.8625   2.8631   2.8634   2.8638   2.8644   2.8646
     2.8654   2.8663   2.8669   2.8672   2.8679   2.8695   2.8709   2.8730
     7.1478   7.1489   7.1496   7.1501   7.1513   7.1519   7.1523   7.1526
     7.1527   7.1534   7.1546   7.1551   7.1558   7.1560   7.1563   7.1569
     7.1574   7.1581   7.1585   7.1587   7.1598   7.1604   7.1621   7.1623
    11.3523  11.3533

          k =-0.1667-0.1667 0.1667 ( 15261 PWs)   bands (ev):

    -3.0436  -1.5439  -1.5420  -1.5395  -0.0594  -0.0581  -0.0568  -0.0553
    -0.0530  -0.0527   1.4103   1.4134   1.4139   1.4148   1.4162   1.4171
     1.4194   2.8659   2.8669   2.8676   2.8689   2.8704   2.8730   4.2331
     4.2335   4.2339   4.3301   4.3305   4.3310   5.6404   5.6435   5.6440
     5.6450   5.6467   5.6482   5.7579   7.0588   7.0602   7.0611   7.0620
     7.0629   7.0638   7.0727   7.0748   7.0773   7.4047   7.4052   7.4056
     8.4762   8.4774   8.4784   8.4792   8.4798   8.4813   8.8157   8.8173
     8.8189   8.8198

          k =-0.1667 0.1667-0.1667 ( 15261 PWs)   bands (ev):

    -3.0436  -1.5444  -1.5418  -1.5392  -0.0598  -0.0584  -0.0562  -0.0551
    -0.0536  -0.0520   1.4113   1.4120   1.4135   1.4147   1.4166   1.4178
     1.4192   2.8662   2.8666   2.8674   2.8687   2.8708   2.8729   4.2328
     4.2335   4.2343   4.3297   4.3305   4.3313   5.6415   5.6421   5.6434
     5.6446   5.6473   5.6489   5.7579   7.0589   7.0598   7.0605   7.0623
     7.0634   7.0643   7.0723   7.0748   7.0775   7.4044   7.4052   7.4059
     8.4761   8.4769   8.4777   8.4797   8.4804   8.4814   8.8153   8.8171
     8.8192   8.8195

          k = 0.1667-0.1667-0.1667 ( 15261 PWs)   bands (ev):

    -3.0436  -1.5441  -1.5424  -1.5389  -0.0599  -0.0581  -0.0567  -0.0561
    -0.0548  -0.0498   1.4114   1.4120   1.4130   1.4150   1.4160   1.4167
     1.4210   2.8652   2.8663   2.8675   2.8693   2.8702   2.8741   4.2327
     4.2335   4.2344   4.3296   4.3305   4.3314   5.6412   5.6423   5.6437
     5.6451   5.6464   5.6489   5.7579   7.0584   7.0599   7.0604   7.0621
     7.0627   7.0645   7.0730   7.0745   7.0780   7.4043   7.4052   7.4060
     8.4755   8.4773   8.4779   8.4798   8.4802   8.4815   8.8160   8.8170
     8.8184   8.8198

          k =-0.1667 0.1667 0.5000 ( 15188 PWs)   bands (ev):

    -2.5424  -2.5401  -1.0469  -1.0449  -1.0446  -1.0422   0.4327   0.4336
     0.4353   0.4369   0.4384   0.4397   1.8943   1.8956   1.9004   1.9015
     1.9026   1.9039   3.3431   3.3443   3.3450   3.3462   3.3472   3.3491
     4.7046   4.7059   4.7070   4.7082   4.7712   4.7723   4.7731   4.7743
     4.8020   4.8033   6.1379   6.1400   6.1403   6.1428   6.2221   6.2233
     6.2239   6.2249   7.5386   7.5396   7.5410   7.5424   7.6399   7.6412
     7.8531   7.8548   7.8556   7.8571   8.9770   8.9779   8.9787   8.9795
     9.3366   9.3396

          k =-0.5000-0.1667 0.1667 ( 15188 PWs)   bands (ev):

    -2.5425  -2.5400  -1.0475  -1.0448  -1.0441  -1.0423   0.4328   0.4347
     0.4354   0.4368   0.4377   0.4391   1.8945   1.8955   1.9006   1.9011
     1.9027   1.9040   3.3430   3.3442   3.3453   3.3465   3.3470   3.3491
     4.7050   4.7053   4.7071   4.7084   4.7710   4.7722   4.7734   4.7746
     4.8018   4.8032   6.1373   6.1401   6.1409   6.1427   6.2224   6.2231
     6.2234   6.2252   7.5381   7.5398   7.5413   7.5423   7.6398   7.6412
     7.8536   7.8541   7.8555   7.8573   8.9768   8.9780   8.9783   8.9801
     9.3370   9.3384

          k = 0.5000-0.1667-0.1667 ( 15188 PWs)   bands (ev):

    -2.5425  -2.5400  -1.0479  -1.0449  -1.0440  -1.0420   0.4315   0.4342
     0.4353   0.4367   0.4379   0.4410   1.8946   1.8954   1.9001   1.9015
     1.9030   1.9038   3.3424   3.3437   3.3454   3.3464   3.3476   3.3497
     4.7046   4.7057   4.7072   4.7083   4.7703   4.7717   4.7739   4.7750
     4.8020   4.8034   6.1370   6.1400   6.1409   6.1430   6.2221   6.2233
     6.2239   6.2249   7.5383   7.5396   7.5405   7.5431   7.6398   7.6412
     7.8531   7.8546   7.8558   7.8571   8.9769   8.9778   8.9788   8.9795
     9.3365   9.3381

          k =-0.1667-0.5000 0.1667 ( 15188 PWs)   bands (ev):

    -2.5415  -2.5410  -1.0468  -1.0463  -1.0436  -1.0420   0.4330   0.4337
     0.4356   0.4359   0.4382   0.4402   1.8947   1.8953   1.9016   1.9018
     1.9023   1.9027   3.3428   3.3431   3.3463   3.3467   3.3477   3.3485
     4.7061   4.7062   4.7067   4.7068   4.7708   4.7710   4.7743   4.7748
     4.8025   4.8028   6.1380   6.1385   6.1414   6.1430   6.2233   6.2234
     6.2237   6.2238   7.5388   7.5400   7.5411   7.5417   7.6403   7.6407
     7.8548   7.8549   7.8554   7.8555   8.9780   8.9780   8.9785   8.9786
     9.3379   9.3388

          k =-0.1667 0.5000-0.1667 ( 15188 PWs)   bands (ev):

    -2.5415  -2.5410  -1.0471  -1.0466  -1.0430  -1.0421   0.4330   0.4338
     0.4360   0.4368   0.4377   0.4393   1.8946   1.8952   1.9017   1.9019
     1.9021   1.9029   3.3424   3.3428   3.3463   3.3467   3.3483   3.3486
     4.7061   4.7061   4.7062   4.7073   4.7704   4.7708   4.7749   4.7752
     4.8024   4.8027   6.1377   6.1383   6.1419   6.1429   6.2229   6.2233
     6.2234   6.2245   7.5390   7.5396   7.5411   7.5419   7.6403   7.6407
     7.8546   7.8549   7.8549   7.8562   8.9777   8.9778   8.9784   8.9792
     9.3372   9.3391

          k =-0.5000 0.1667 0.5000 ( 15204 PWs)   bands (ev):

    -2.0442  -2.0417  -2.0394  -2.0373  -0.5528  -0.5503  -0.5479  -0.5458
     0.9226   0.9251   0.9275   0.9296   2.3760   2.3767   2.3781   2.3804
     2.3814   2.3818   2.3830   2.3849   3.8157   3.8164   3.8178   3.8201
     3.8212   3.8215   3.8227   3.8246   5.1699   5.1725   5.1751   5.1773
     5.2743   5.2751   5.2764   5.2787   5.2797   5.2803   5.2814   5.2834
     6.6665   6.6678   6.6691   6.6702   8.0978   8.0992   8.1003   8.1015
     8.4081   8.4104   8.4123   8.4143   9.3864   9.3872   9.3895   9.3923
     9.3937   9.3958

          k =-0.5000 0.5000 0.1667 ( 15204 PWs)   bands (ev):

    -2.0427  -2.0416  -2.0393  -2.0391  -0.5512  -0.5502  -0.5478  -0.5477
     0.9242   0.9253   0.9276   0.9278   2.3765   2.3779   2.3784   2.3799
     2.3806   2.3822   2.3830   2.3836   3.8162   3.8176   3.8181   3.8197
     3.8203   3.8219   3.8228   3.8234   5.1715   5.1727   5.1751   5.1753
     5.2749   5.2762   5.2769   5.2782   5.2790   5.2807   5.2813   5.2820
     6.6673   6.6679   6.6691   6.6692   8.0985   8.0992   8.1005   8.1006
     8.4095   8.4104   8.4126   8.4127   9.3868   9.3890   9.3898   9.3913
     9.3926   9.3942

     the Fermi energy is     7.8429 ev

!    total energy              =   -1264.06718183 Ry
     Harris-Foulkes estimate   =   -1264.06718215 Ry
     estimated scf accuracy    <       0.00000027 Ry

     total all-electron energy =    -15540.636204 Ry

     The total energy is the sum of the following terms:

     one-electron contribution =     101.26314249 Ry
     hartree contribution      =       0.20276775 Ry
     xc contribution           =     -82.91834536 Ry
     ewald contribution        =    -172.93188273 Ry
     one-center paw contrib.   =   -1109.67973535 Ry
     smearing contrib. (-TS)   =      -0.00312863 Ry

     convergence has been achieved in   9 iterations

     Forces acting on atoms (cartesian axes, Ry/au):

     atom    1 type  1   force =     0.00001681    0.00002063    0.00002307
     atom    2 type  1   force =    -0.00007743    0.00021875    0.00008783
     atom    3 type  1   force =     0.00023884   -0.00005124   -0.00050588
     atom    4 type  1   force =    -0.00006465   -0.00015031   -0.00033596
     atom    5 type  1   force =    -0.00043075   -0.00038599    0.00031702
     atom    6 type  1   force =    -0.00012543    0.00044438    0.00001189
     atom    7 type  1   force =    -0.00013255   -0.00055696    0.00031697
     atom    8 type  1   force =     0.00003977   -0.00007530   -0.00026918
     atom    9 type  1   force =     0.00001816   -0.00007359    0.00012699
     atom   10 type  1   force =    -0.00014927   -0.00008113   -0.00065610
     atom   11 type  1   force =    -0.00022428   -0.00026390   -0.00037712
     atom   12 type  1   force =    -0.00006983    0.00003283   -0.00004716
     atom   13 type  1   force =    -0.00017553   -0.00031769   -0.00003648
     atom   14 type  1   force =    -0.00001367    0.00015059    0.00041654
     atom   15 type  1   force =    -0.00049167    0.00029574    0.00049356
     atom   16 type  1   force =     0.00061865    0.00049502    0.00011507
     atom   17 type  1   force =    -0.00045452    0.00003233    0.00010673
     atom   18 type  1   force =     0.00019047   -0.00003376    0.00045432
     atom   19 type  1   force =     0.00049710    0.00023281   -0.00007049
     atom   20 type  1   force =     0.00007469    0.00021295    0.00007869
     atom   21 type  1   force =     0.00019717   -0.00053049    0.00010134
     atom   22 type  1   force =    -0.00016648    0.00059385    0.00010647
     atom   23 type  1   force =     0.00009753   -0.00013340   -0.00024679
     atom   24 type  1   force =     0.00011113    0.00014221   -0.00011803
     atom   25 type  1   force =     0.00011077   -0.00016018    0.00034043
     atom   26 type  1   force =     0.00028778   -0.00022846   -0.00024488
     atom   27 type  1   force =    -0.00017740   -0.00002014    0.00012427
     atom   28 type  1   force =    -0.00011510    0.00024414   -0.00005430
     atom   29 type  1   force =     0.00082853   -0.00033504   -0.00010882
     atom   30 type  1   force =    -0.00027620    0.00004541    0.00026501
     atom   31 type  1   force =    -0.00010299   -0.00005458   -0.00036844
     atom   32 type  1   force =    -0.00007966    0.00029053   -0.00004657

     Total force =     0.002707     Total SCF correction =     0.000502
     SCF correction compared to forces is large: reduce conv_thr to get better values


     Computing stress (Cartesian axis) and pressure

          total   stress  (Ry/bohr**3)                   (kbar)     P=   -0.91
  -0.00000619  -0.00000000  -0.00000000         -0.91     -0.00     -0.00
  -0.00000000  -0.00000618  -0.00000000         -0.00     -0.91     -0.00
  -0.00000000  -0.00000000  -0.00000621         -0.00     -0.00     -0.91


     Writing output data file fe_scf_fcc_2.save/
 
     init_run     :      1.64s CPU      1.74s WALL (       1 calls)
     electrons    :     27.51s CPU     28.82s WALL (       1 calls)
     forces       :      0.37s CPU      0.39s WALL (       1 calls)
     stress       :      1.35s CPU      1.36s WALL (       1 calls)

     Called by init_run:
     wfcinit      :      1.45s CPU      1.53s WALL (       1 calls)
     potinit      :      0.09s CPU      0.09s WALL (       1 calls)
     hinit0       :      0.07s CPU      0.08s WALL (       1 calls)

     Called by electrons:
     c_bands      :     22.91s CPU     24.03s WALL (      10 calls)
     sum_band     :      3.72s CPU      3.88s WALL (      10 calls)
     v_of_rho     :      0.13s CPU      0.14s WALL (      10 calls)
     newd         :      0.08s CPU      0.09s WALL (      10 calls)
     PAW_pot      :      0.70s CPU      0.71s WALL (      10 calls)
     mix_rho      :      0.03s CPU      0.03s WALL (      10 calls)

     Called by c_bands:
     init_us_2    :      0.38s CPU      0.40s WALL (     322 calls)
     cegterg      :     21.67s CPU     22.76s WALL (     140 calls)

     Called by sum_band:
     sum_band:bec :      0.02s CPU      0.02s WALL (     140 calls)
     addusdens    :      0.06s CPU      0.07s WALL (      10 calls)

     Called by *egterg:
     h_psi        :     15.52s CPU     16.42s WALL (     479 calls)
     s_psi        :      1.27s CPU      1.30s WALL (     479 calls)
     g_psi        :      0.07s CPU      0.08s WALL (     325 calls)
     cdiaghg      :      2.75s CPU      2.80s WALL (     451 calls)

     Called by h_psi:
     h_psi:pot    :     15.46s CPU     16.36s WALL (     479 calls)
     h_psi:calbec :      1.67s CPU      1.80s WALL (     479 calls)
     vloc_psi     :     12.52s CPU     13.25s WALL (     479 calls)
     add_vuspsi   :      1.26s CPU      1.30s WALL (     479 calls)

     General routines
     calbec       :      2.52s CPU      2.69s WALL (     689 calls)
     fft          :      0.16s CPU      0.18s WALL (     137 calls)
     ffts         :      0.01s CPU      0.01s WALL (      10 calls)
     fftw         :     14.19s CPU     14.96s WALL (   53168 calls)
 
     Parallel routines
     fft_scatt_xy :      1.98s CPU      2.10s WALL (   53315 calls)
     fft_scatt_yz :      8.44s CPU      8.89s WALL (   53315 calls)
 
     PWSCF        :    32.37s CPU        34.60s WALL

 
   This run was terminated on:   7:48:47   9Mar2020            

=------------------------------------------------------------------------------=
   JOB DONE.
=------------------------------------------------------------------------------=
