
     Program PWSCF v.6.3 starts on  9Mar2020 at  8:56:28 

     This program is part of the open-source Quantum ESPRESSO suite
     for quantum simulation of materials; please cite
         "P. Giannozzi et al., J. Phys.:Condens. Matter 21 395502 (2009);
         "P. Giannozzi et al., J. Phys.:Condens. Matter 29 465901 (2017);
          URL http://www.quantum-espresso.org", 
     in publications or presentations arising from this work. More details at
     http://www.quantum-espresso.org/quote

     Parallel version (MPI & OpenMP), running on      20 processor cores
     Number of MPI processes:                20
     Threads/MPI process:                     1

     MPI processes distributed on     1 nodes
     R & G space division:  proc/nbgrp/npool/nimage =      20
     Reading input from wd/kpoints/file_000121.in
Warning: card &IONS ignored
Warning: card ION_DYNAMICS = 'BFGS', ignored
Warning: card / ignored
Warning: card &CELL ignored
Warning: card CELL_DYNAMICS = 'BFGS', ignored
Warning: card CELL_FACTOR = 2.0, ignored
Warning: card PRESS = 0.0, ignored
Warning: card / ignored

     Current dimensions of program PWSCF are:
     Max number of different atomic species (ntypx) = 10
     Max number of k-points (npk) =  40000
     Max angular momentum in pseudopotentials (lmaxx) =  3
     Message from routine read_upf::
     Pseudo file /rds/homes/b/bxp912/pp/Al.pbe-nl-kjpaw_psl.1.0.0.UPF has been successfully fixed on the fly.
To avoid this message in the future you can permanently fix 
 your pseudo files following instructions given in: 
https://gitlab.com/QEF/q-e/blob/master/upftools/how_to_fix_upf.md
               file Al.pbe-nl-kjpaw_psl.1.0.0.UPF: wavefunction(s)  3S 3P renormalized

     Subspace diagonalization in iterative solution of the eigenvalue problem:
     a serial algorithm will be used

 
     Parallelization info
     --------------------
     sticks:   dense  smooth     PW     G-vecs:    dense   smooth      PW
     Min         148     148     41                 6092     6092     891
     Max         149     149     42                 6097     6097     894
     Sum        2965    2965    829               121865   121865   17845
 


     bravais-lattice index     =            0
     lattice parameter (alat)  =      15.2712  a.u.
     unit-cell volume          =    3561.3897 (a.u.)^3
     number of atoms/cell      =           32
     number of atomic types    =            1
     number of electrons       =        96.00
     number of Kohn-Sham states=           58
     kinetic-energy cutoff     =      40.0000  Ry
     charge density cutoff     =     160.0000  Ry
     convergence threshold     =      1.0E-06
     mixing beta               =       0.1000
     number of iterations used =           10  TF        mixing
     Exchange-correlation      = SLA PW PBX PBC ( 1  4  3  4 0 0)

     celldm(1)=  15.271200  celldm(2)=   0.000000  celldm(3)=   0.000000
     celldm(4)=   0.000000  celldm(5)=   0.000000  celldm(6)=   0.000000

     crystal axes: (cart. coord. in units of alat)
               a(1) = (   1.000000   0.000000   0.000000 )  
               a(2) = (   0.000000   1.000000   0.000000 )  
               a(3) = (   0.000000   0.000000   1.000000 )  

     reciprocal axes: (cart. coord. in units 2 pi/alat)
               b(1) = (  1.000000  0.000000  0.000000 )  
               b(2) = (  0.000000  1.000000  0.000000 )  
               b(3) = (  0.000000  0.000000  1.000000 )  


     PseudoPot. # 1 for Al read from file:
     /rds/homes/b/bxp912/pp/Al.pbe-nl-kjpaw_psl.1.0.0.UPF
     MD5 check sum: 339dbea23cf3ab9a065ad45c0f9085d7
     Pseudo is Projector augmented-wave + core cor, Zval =  3.0
     Generated using "atomic" code by A. Dal Corso v.5.1
     Shape of augmentation charge: PSQ
     Using radial grid of 1135 points,  4 beta functions with: 
                l(1) =   0
                l(2) =   0
                l(3) =   1
                l(4) =   1
     Q(r) pseudized with 0 coefficients 


     atomic species   valence    mass     pseudopotential
        Al             3.00    26.98200     Al( 1.00)

     No symmetry found



   Cartesian axes

     site n.     atom                  positions (alat units)
         1           Al  tau(   1) = (  -0.0000327   0.0000095   0.0000680  )
         2           Al  tau(   2) = (   0.2500796   0.2498100   0.0000703  )
         3           Al  tau(   3) = (   0.2499071   0.0000305   0.2502955  )
         4           Al  tau(   4) = (  -0.0000200   0.2502187   0.2501837  )
         5           Al  tau(   5) = (   0.0002558   0.0002521   0.4998810  )
         6           Al  tau(   6) = (   0.2501194   0.2498326   0.5000036  )
         7           Al  tau(   7) = (   0.2500278   0.0001539   0.7498880  )
         8           Al  tau(   8) = (   0.0000549   0.2501136   0.7502101  )
         9           Al  tau(   9) = (   0.0002375   0.5001078  -0.0000154  )
        10           Al  tau(  10) = (   0.2501396   0.7501762   0.0004054  )
        11           Al  tau(  11) = (   0.2501891   0.5001088   0.2502510  )
        12           Al  tau(  12) = (   0.0000383   0.7500455   0.2500253  )
        13           Al  tau(  13) = (   0.0001102   0.5001562   0.5000990  )
        14           Al  tau(  14) = (   0.2499640   0.7500632   0.4998706  )
        15           Al  tau(  15) = (   0.2503366   0.4997894   0.7496960  )
        16           Al  tau(  16) = (  -0.0003280   0.7497055   0.7499931  )
        17           Al  tau(  17) = (   0.5002037  -0.0001004  -0.0000387  )
        18           Al  tau(  18) = (   0.7499123   0.2500941  -0.0002332  )
        19           Al  tau(  19) = (   0.7496354  -0.0000959   0.2500771  )
        20           Al  tau(  20) = (   0.4999751   0.2499614   0.2498317  )
        21           Al  tau(  21) = (   0.4999211   0.0002929   0.4999726  )
        22           Al  tau(  22) = (   0.7500684   0.2496958   0.4999523  )
        23           Al  tau(  23) = (   0.7500357  -0.0000687   0.7500257  )
        24           Al  tau(  24) = (   0.5000114   0.2498864   0.7499948  )
        25           Al  tau(  25) = (   0.4998526   0.5001156  -0.0002192  )
        26           Al  tau(  26) = (   0.7497723   0.7500978   0.0002736  )
        27           Al  tau(  27) = (   0.7501007   0.4998018   0.2499462  )
        28           Al  tau(  28) = (   0.5000878   0.7497908   0.2502093  )
        29           Al  tau(  29) = (   0.4996761   0.5001027   0.5000404  )
        30           Al  tau(  30) = (   0.7501658   0.7499872   0.4998547  )
        31           Al  tau(  31) = (   0.7499472   0.5000095   0.7501393  )
        32           Al  tau(  32) = (   0.5000142   0.7499486   0.7499177  )

     number of k points=   172  Marzari-Vanderbilt smearing, width (Ry)=  0.0400

     Number of k-points >= 100: set verbosity='high' to print them.

     Dense  grid:   121865 G-vectors     FFT dimensions: (  64,  64,  64)

     Estimated max dynamical RAM per process >     136.88 MB

     Estimated total dynamical RAM >       2.67 GB

     Initial potential from superposition of free atoms

     starting charge   95.92671, renormalised to   96.00000
     Starting wfcs are  128 randomized atomic wfcs
     Checking if some PAW data can be deallocated... 

     total cpu time spent up to now is       19.2 secs

     Self-consistent Calculation

     iteration #  1     ecut=    40.00 Ry     beta= 0.10
     Davidson diagonalization with overlap
     ethr =  1.00E-02,  avg # of iterations =  3.0

     Threshold (ethr) on eigenvalues was too large:
     Diagonalizing with lowered threshold

     Davidson diagonalization with overlap
     ethr =  1.91E-04,  avg # of iterations =  4.7

     total cpu time spent up to now is       90.2 secs

     total energy              =   -1264.13014151 Ry
     Harris-Foulkes estimate   =   -1264.13638261 Ry
     estimated scf accuracy    <       0.17943986 Ry

     iteration #  2     ecut=    40.00 Ry     beta= 0.10
     Davidson diagonalization with overlap
     ethr =  1.87E-04,  avg # of iterations =  1.2

     total cpu time spent up to now is      111.3 secs

     total energy              =   -1264.08283988 Ry
     Harris-Foulkes estimate   =   -1264.13092302 Ry
     estimated scf accuracy    <       0.15582801 Ry

     iteration #  3     ecut=    40.00 Ry     beta= 0.10
     Davidson diagonalization with overlap
     ethr =  1.62E-04,  avg # of iterations =  1.0

     total cpu time spent up to now is      132.1 secs

     total energy              =   -1264.08574960 Ry
     Harris-Foulkes estimate   =   -1264.08586075 Ry
     estimated scf accuracy    <       0.00062015 Ry

     iteration #  4     ecut=    40.00 Ry     beta= 0.10
     Davidson diagonalization with overlap
     c_bands:  1 eigenvalues not converged
     c_bands:  4 eigenvalues not converged
     c_bands:  1 eigenvalues not converged
     c_bands:  1 eigenvalues not converged
     c_bands:  1 eigenvalues not converged
     c_bands:  1 eigenvalues not converged
     c_bands:  1 eigenvalues not converged
     c_bands:  2 eigenvalues not converged
     c_bands:  1 eigenvalues not converged
     c_bands:  1 eigenvalues not converged
     c_bands:  1 eigenvalues not converged
     c_bands:  1 eigenvalues not converged
     c_bands:  1 eigenvalues not converged
     c_bands:  1 eigenvalues not converged
     c_bands:  1 eigenvalues not converged
     c_bands:  1 eigenvalues not converged
     c_bands:  1 eigenvalues not converged
     c_bands:  1 eigenvalues not converged
     ethr =  6.46E-07,  avg # of iterations =  8.7

     total cpu time spent up to now is      183.2 secs

     total energy              =   -1264.08635968 Ry
     Harris-Foulkes estimate   =   -1264.08652088 Ry
     estimated scf accuracy    <       0.00037425 Ry

     iteration #  5     ecut=    40.00 Ry     beta= 0.10
     Davidson diagonalization with overlap
     ethr =  3.90E-07,  avg # of iterations =  1.5

     total cpu time spent up to now is      204.7 secs

     total energy              =   -1264.08613303 Ry
     Harris-Foulkes estimate   =   -1264.08637018 Ry
     estimated scf accuracy    <       0.00024596 Ry

     iteration #  6     ecut=    40.00 Ry     beta= 0.10
     Davidson diagonalization with overlap
     ethr =  2.56E-07,  avg # of iterations =  2.4

     total cpu time spent up to now is      235.8 secs

     total energy              =   -1264.08620182 Ry
     Harris-Foulkes estimate   =   -1264.08620029 Ry
     estimated scf accuracy    <       0.00000986 Ry

     iteration #  7     ecut=    40.00 Ry     beta= 0.10
     Davidson diagonalization with overlap
     ethr =  1.03E-08,  avg # of iterations =  5.1

     total cpu time spent up to now is      267.4 secs

     total energy              =   -1264.08619672 Ry
     Harris-Foulkes estimate   =   -1264.08620289 Ry
     estimated scf accuracy    <       0.00000540 Ry

     iteration #  8     ecut=    40.00 Ry     beta= 0.10
     Davidson diagonalization with overlap
     ethr =  5.62E-09,  avg # of iterations =  2.4

     total cpu time spent up to now is      296.2 secs

     End of self-consistent calculation

     Number of k-points >= 100: set verbosity='high' to print the bands.

     the Fermi energy is     7.9219 ev

!    total energy              =   -1264.08619797 Ry
     Harris-Foulkes estimate   =   -1264.08619745 Ry
     estimated scf accuracy    <       0.00000089 Ry

     total all-electron energy =    -15540.655220 Ry

     The total energy is the sum of the following terms:

     one-electron contribution =     101.24824680 Ry
     hartree contribution      =       0.19709250 Ry
     xc contribution           =     -82.91435799 Ry
     ewald contribution        =    -172.93188273 Ry
     one-center paw contrib.   =   -1109.67891387 Ry
     smearing contrib. (-TS)   =      -0.00638268 Ry

     convergence has been achieved in   8 iterations

     Forces acting on atoms (cartesian axes, Ry/au):

     atom    1 type  1   force =    -0.00001870   -0.00001730    0.00000622
     atom    2 type  1   force =    -0.00011249    0.00022944    0.00007393
     atom    3 type  1   force =     0.00021852    0.00001266   -0.00051961
     atom    4 type  1   force =     0.00000559   -0.00020795   -0.00034647
     atom    5 type  1   force =    -0.00044535   -0.00035437    0.00033385
     atom    6 type  1   force =    -0.00018195    0.00037487   -0.00004086
     atom    7 type  1   force =    -0.00019357   -0.00052383    0.00034026
     atom    8 type  1   force =    -0.00002086   -0.00006145   -0.00027240
     atom    9 type  1   force =    -0.00002715   -0.00003320    0.00009028
     atom   10 type  1   force =    -0.00021373   -0.00010071   -0.00068405
     atom   11 type  1   force =    -0.00026767   -0.00028713   -0.00038618
     atom   12 type  1   force =    -0.00016621    0.00000380   -0.00005079
     atom   13 type  1   force =    -0.00017273   -0.00032481   -0.00004372
     atom   14 type  1   force =    -0.00003176    0.00012784    0.00046716
     atom   15 type  1   force =    -0.00050987    0.00038762    0.00053096
     atom   16 type  1   force =     0.00065083    0.00050908    0.00018174
     atom   17 type  1   force =    -0.00036762    0.00007314    0.00005093
     atom   18 type  1   force =     0.00020159   -0.00010476    0.00038894
     atom   19 type  1   force =     0.00055914    0.00022094   -0.00009896
     atom   20 type  1   force =     0.00008714    0.00021815    0.00006755
     atom   21 type  1   force =     0.00018608   -0.00055370    0.00010876
     atom   22 type  1   force =    -0.00007673    0.00059957    0.00018382
     atom   23 type  1   force =     0.00012841   -0.00007165   -0.00014171
     atom   24 type  1   force =     0.00013050    0.00009563   -0.00001707
     atom   25 type  1   force =     0.00007633   -0.00017623    0.00031156
     atom   26 type  1   force =     0.00033053   -0.00022920   -0.00025570
     atom   27 type  1   force =    -0.00016393    0.00009101    0.00010707
     atom   28 type  1   force =    -0.00008753    0.00024108   -0.00010365
     atom   29 type  1   force =     0.00084150   -0.00032621   -0.00009878
     atom   30 type  1   force =    -0.00023633    0.00003876    0.00020252
     atom   31 type  1   force =    -0.00003342   -0.00009867   -0.00035147
     atom   32 type  1   force =    -0.00008853    0.00024758   -0.00003413

     Total force =     0.002743     Total SCF correction =     0.000422
     SCF correction compared to forces is large: reduce conv_thr to get better values


     Computing stress (Cartesian axis) and pressure

          total   stress  (Ry/bohr**3)                   (kbar)     P=   -0.82
  -0.00000558  -0.00000000  -0.00000000         -0.82     -0.00     -0.00
  -0.00000000  -0.00000558   0.00000000         -0.00     -0.82      0.00
  -0.00000000   0.00000000  -0.00000557         -0.00      0.00     -0.82


     Writing output data file fe_scf_fcc_2.save/
 
     init_run     :     17.79s CPU     18.63s WALL (       1 calls)
     electrons    :    270.10s CPU    277.18s WALL (       1 calls)
     forces       :      3.79s CPU      3.97s WALL (       1 calls)
     stress       :     15.58s CPU     15.66s WALL (       1 calls)

     Called by init_run:
     wfcinit      :     17.62s CPU     18.42s WALL (       1 calls)
     potinit      :      0.08s CPU      0.08s WALL (       1 calls)
     hinit0       :      0.06s CPU      0.09s WALL (       1 calls)

     Called by electrons:
     c_bands      :    238.50s CPU    244.24s WALL (       9 calls)
     sum_band     :     30.88s CPU     32.00s WALL (       9 calls)
     v_of_rho     :      0.08s CPU      0.09s WALL (       9 calls)
     newd         :      0.07s CPU      0.08s WALL (       9 calls)
     PAW_pot      :      0.59s CPU      0.59s WALL (       9 calls)
     mix_rho      :      0.02s CPU      0.03s WALL (       9 calls)

     Called by c_bands:
     init_us_2    :      5.51s CPU      5.61s WALL (    3612 calls)
     cegterg      :    226.04s CPU    231.40s WALL (    1548 calls)

     Called by sum_band:
     sum_band:bec :      0.18s CPU      0.18s WALL (    1548 calls)
     addusdens    :      0.05s CPU      0.06s WALL (       9 calls)

     Called by *egterg:
     h_psi        :    154.14s CPU    159.03s WALL (    6859 calls)
     s_psi        :     15.77s CPU     15.82s WALL (    6859 calls)
     g_psi        :      0.89s CPU      0.89s WALL (    5139 calls)
     cdiaghg      :     39.50s CPU     39.57s WALL (    6515 calls)

     Called by h_psi:
     h_psi:pot    :    153.40s CPU    158.29s WALL (    6859 calls)
     h_psi:calbec :     17.06s CPU     18.25s WALL (    6859 calls)
     vloc_psi     :    120.65s CPU    124.29s WALL (    6859 calls)
     add_vuspsi   :     15.63s CPU     15.70s WALL (    6859 calls)

     General routines
     calbec       :     25.29s CPU     27.07s WALL (    9267 calls)
     fft          :      0.14s CPU      0.17s WALL (     126 calls)
     ffts         :      0.01s CPU      0.01s WALL (       9 calls)
     fftw         :    129.74s CPU    133.64s WALL (  619358 calls)
 
     Parallel routines
     fft_scatt_xy :     22.98s CPU     23.68s WALL (  619493 calls)
     fft_scatt_yz :     61.00s CPU     63.02s WALL (  619493 calls)
 
     PWSCF        :  5m21.80s CPU     5m33.46s WALL

 
   This run was terminated on:   9: 2: 2   9Mar2020            

=------------------------------------------------------------------------------=
   JOB DONE.
=------------------------------------------------------------------------------=
