
     Program PWSCF v.6.3 starts on  9Mar2020 at  7:46:36 

     This program is part of the open-source Quantum ESPRESSO suite
     for quantum simulation of materials; please cite
         "P. Giannozzi et al., J. Phys.:Condens. Matter 21 395502 (2009);
         "P. Giannozzi et al., J. Phys.:Condens. Matter 29 465901 (2017);
          URL http://www.quantum-espresso.org", 
     in publications or presentations arising from this work. More details at
     http://www.quantum-espresso.org/quote

     Parallel version (MPI & OpenMP), running on      20 processor cores
     Number of MPI processes:                20
     Threads/MPI process:                     1

     MPI processes distributed on     1 nodes
     R & G space division:  proc/nbgrp/npool/nimage =      20
     Reading input from wd/kpoints/file_000093.in
Warning: card &IONS ignored
Warning: card ION_DYNAMICS = 'BFGS', ignored
Warning: card / ignored
Warning: card &CELL ignored
Warning: card CELL_DYNAMICS = 'BFGS', ignored
Warning: card CELL_FACTOR = 2.0, ignored
Warning: card PRESS = 0.0, ignored
Warning: card / ignored

     Current dimensions of program PWSCF are:
     Max number of different atomic species (ntypx) = 10
     Max number of k-points (npk) =  40000
     Max angular momentum in pseudopotentials (lmaxx) =  3
     Message from routine read_upf::
     Pseudo file /rds/homes/b/bxp912/pp/Al.pbe-nl-kjpaw_psl.1.0.0.UPF has been successfully fixed on the fly.
To avoid this message in the future you can permanently fix 
 your pseudo files following instructions given in: 
https://gitlab.com/QEF/q-e/blob/master/upftools/how_to_fix_upf.md
               file Al.pbe-nl-kjpaw_psl.1.0.0.UPF: wavefunction(s)  3S 3P renormalized

     Subspace diagonalization in iterative solution of the eigenvalue problem:
     a serial algorithm will be used

 
     Parallelization info
     --------------------
     sticks:   dense  smooth     PW     G-vecs:    dense   smooth      PW
     Min         148     148     41                 6092     6092     891
     Max         149     149     42                 6097     6097     894
     Sum        2965    2965    829               121865   121865   17845
 


     bravais-lattice index     =            0
     lattice parameter (alat)  =      15.2712  a.u.
     unit-cell volume          =    3561.3897 (a.u.)^3
     number of atoms/cell      =           32
     number of atomic types    =            1
     number of electrons       =        96.00
     number of Kohn-Sham states=           58
     kinetic-energy cutoff     =      40.0000  Ry
     charge density cutoff     =     160.0000  Ry
     convergence threshold     =      1.0E-06
     mixing beta               =       0.1000
     number of iterations used =           10  TF        mixing
     Exchange-correlation      = SLA PW PBX PBC ( 1  4  3  4 0 0)

     celldm(1)=  15.271200  celldm(2)=   0.000000  celldm(3)=   0.000000
     celldm(4)=   0.000000  celldm(5)=   0.000000  celldm(6)=   0.000000

     crystal axes: (cart. coord. in units of alat)
               a(1) = (   1.000000   0.000000   0.000000 )  
               a(2) = (   0.000000   1.000000   0.000000 )  
               a(3) = (   0.000000   0.000000   1.000000 )  

     reciprocal axes: (cart. coord. in units 2 pi/alat)
               b(1) = (  1.000000  0.000000  0.000000 )  
               b(2) = (  0.000000  1.000000  0.000000 )  
               b(3) = (  0.000000  0.000000  1.000000 )  


     PseudoPot. # 1 for Al read from file:
     /rds/homes/b/bxp912/pp/Al.pbe-nl-kjpaw_psl.1.0.0.UPF
     MD5 check sum: 339dbea23cf3ab9a065ad45c0f9085d7
     Pseudo is Projector augmented-wave + core cor, Zval =  3.0
     Generated using "atomic" code by A. Dal Corso v.5.1
     Shape of augmentation charge: PSQ
     Using radial grid of 1135 points,  4 beta functions with: 
                l(1) =   0
                l(2) =   0
                l(3) =   1
                l(4) =   1
     Q(r) pseudized with 0 coefficients 


     atomic species   valence    mass     pseudopotential
        Al             3.00    26.98200     Al( 1.00)

     No symmetry found



   Cartesian axes

     site n.     atom                  positions (alat units)
         1           Al  tau(   1) = (  -0.0000327   0.0000095   0.0000680  )
         2           Al  tau(   2) = (   0.2500796   0.2498100   0.0000703  )
         3           Al  tau(   3) = (   0.2499071   0.0000305   0.2502955  )
         4           Al  tau(   4) = (  -0.0000200   0.2502187   0.2501837  )
         5           Al  tau(   5) = (   0.0002558   0.0002521   0.4998810  )
         6           Al  tau(   6) = (   0.2501194   0.2498326   0.5000036  )
         7           Al  tau(   7) = (   0.2500278   0.0001539   0.7498880  )
         8           Al  tau(   8) = (   0.0000549   0.2501136   0.7502101  )
         9           Al  tau(   9) = (   0.0002375   0.5001078  -0.0000154  )
        10           Al  tau(  10) = (   0.2501396   0.7501762   0.0004054  )
        11           Al  tau(  11) = (   0.2501891   0.5001088   0.2502510  )
        12           Al  tau(  12) = (   0.0000383   0.7500455   0.2500253  )
        13           Al  tau(  13) = (   0.0001102   0.5001562   0.5000990  )
        14           Al  tau(  14) = (   0.2499640   0.7500632   0.4998706  )
        15           Al  tau(  15) = (   0.2503366   0.4997894   0.7496960  )
        16           Al  tau(  16) = (  -0.0003280   0.7497055   0.7499931  )
        17           Al  tau(  17) = (   0.5002037  -0.0001004  -0.0000387  )
        18           Al  tau(  18) = (   0.7499123   0.2500941  -0.0002332  )
        19           Al  tau(  19) = (   0.7496354  -0.0000959   0.2500771  )
        20           Al  tau(  20) = (   0.4999751   0.2499614   0.2498317  )
        21           Al  tau(  21) = (   0.4999211   0.0002929   0.4999726  )
        22           Al  tau(  22) = (   0.7500684   0.2496958   0.4999523  )
        23           Al  tau(  23) = (   0.7500357  -0.0000687   0.7500257  )
        24           Al  tau(  24) = (   0.5000114   0.2498864   0.7499948  )
        25           Al  tau(  25) = (   0.4998526   0.5001156  -0.0002192  )
        26           Al  tau(  26) = (   0.7497723   0.7500978   0.0002736  )
        27           Al  tau(  27) = (   0.7501007   0.4998018   0.2499462  )
        28           Al  tau(  28) = (   0.5000878   0.7497908   0.2502093  )
        29           Al  tau(  29) = (   0.4996761   0.5001027   0.5000404  )
        30           Al  tau(  30) = (   0.7501658   0.7499872   0.4998547  )
        31           Al  tau(  31) = (   0.7499472   0.5000095   0.7501393  )
        32           Al  tau(  32) = (   0.5000142   0.7499486   0.7499177  )

     number of k points=    14  Marzari-Vanderbilt smearing, width (Ry)=  0.0010
                       cart. coord. in units 2pi/alat
        k(    1) = (   0.1666667   0.1666667   0.1666667), wk =   0.1481481
        k(    2) = (   0.1666667   0.1666667  -0.5000000), wk =   0.1481481
        k(    3) = (   0.1666667  -0.5000000  -0.5000000), wk =   0.1481481
        k(    4) = (  -0.5000000  -0.5000000  -0.5000000), wk =   0.0740741
        k(    5) = (  -0.1666667  -0.1666667   0.1666667), wk =   0.1481481
        k(    6) = (  -0.1666667   0.1666667  -0.1666667), wk =   0.1481481
        k(    7) = (   0.1666667  -0.1666667  -0.1666667), wk =   0.1481481
        k(    8) = (  -0.1666667   0.1666667   0.5000000), wk =   0.1481481
        k(    9) = (  -0.5000000  -0.1666667   0.1666667), wk =   0.1481481
        k(   10) = (   0.5000000  -0.1666667  -0.1666667), wk =   0.1481481
        k(   11) = (  -0.1666667  -0.5000000   0.1666667), wk =   0.1481481
        k(   12) = (  -0.1666667   0.5000000  -0.1666667), wk =   0.1481481
        k(   13) = (  -0.5000000   0.1666667   0.5000000), wk =   0.1481481
        k(   14) = (  -0.5000000   0.5000000   0.1666667), wk =   0.1481481

     Dense  grid:   121865 G-vectors     FFT dimensions: (  64,  64,  64)

     Estimated max dynamical RAM per process >      30.61 MB

     Estimated total dynamical RAM >     612.26 MB

     Initial potential from superposition of free atoms

     starting charge   95.92671, renormalised to   96.00000
     Starting wfcs are  128 randomized atomic wfcs
     Checking if some PAW data can be deallocated... 

     total cpu time spent up to now is        2.4 secs

     Self-consistent Calculation

     iteration #  1     ecut=    40.00 Ry     beta= 0.10
     Davidson diagonalization with overlap
     ethr =  1.00E-02,  avg # of iterations =  3.0

     Threshold (ethr) on eigenvalues was too large:
     Diagonalizing with lowered threshold

     Davidson diagonalization with overlap
     ethr =  1.94E-04,  avg # of iterations =  3.6

     total cpu time spent up to now is        8.1 secs

     total energy              =   -1264.10718815 Ry
     Harris-Foulkes estimate   =   -1264.11334813 Ry
     estimated scf accuracy    <       0.18086368 Ry

     iteration #  2     ecut=    40.00 Ry     beta= 0.10
     Davidson diagonalization with overlap
     ethr =  1.88E-04,  avg # of iterations =  1.0

     total cpu time spent up to now is        9.9 secs

     total energy              =   -1264.06036340 Ry
     Harris-Foulkes estimate   =   -1264.10802808 Ry
     estimated scf accuracy    <       0.15705387 Ry

     iteration #  3     ecut=    40.00 Ry     beta= 0.10
     Davidson diagonalization with overlap
     ethr =  1.64E-04,  avg # of iterations =  1.0

     total cpu time spent up to now is       11.8 secs

     total energy              =   -1264.06330038 Ry
     Harris-Foulkes estimate   =   -1264.06343308 Ry
     estimated scf accuracy    <       0.00132660 Ry

     iteration #  4     ecut=    40.00 Ry     beta= 0.10
     Davidson diagonalization with overlap
     ethr =  1.38E-06,  avg # of iterations =  4.9

     total cpu time spent up to now is       15.5 secs

     total energy              =   -1264.06375770 Ry
     Harris-Foulkes estimate   =   -1264.06408130 Ry
     estimated scf accuracy    <       0.00059301 Ry

     iteration #  5     ecut=    40.00 Ry     beta= 0.10
     Davidson diagonalization with overlap
     ethr =  6.18E-07,  avg # of iterations =  1.0

     total cpu time spent up to now is       17.3 secs

     total energy              =   -1264.06372403 Ry
     Harris-Foulkes estimate   =   -1264.06379684 Ry
     estimated scf accuracy    <       0.00018651 Ry

     iteration #  6     ecut=    40.00 Ry     beta= 0.10
     Davidson diagonalization with overlap
     ethr =  1.94E-07,  avg # of iterations =  1.0

     total cpu time spent up to now is       19.2 secs

     total energy              =   -1264.06371048 Ry
     Harris-Foulkes estimate   =   -1264.06372932 Ry
     estimated scf accuracy    <       0.00010238 Ry

     iteration #  7     ecut=    40.00 Ry     beta= 0.10
     Davidson diagonalization with overlap
     ethr =  1.07E-07,  avg # of iterations =  2.0

     total cpu time spent up to now is       21.9 secs

     total energy              =   -1264.06372847 Ry
     Harris-Foulkes estimate   =   -1264.06373983 Ry
     estimated scf accuracy    <       0.00011349 Ry

     iteration #  8     ecut=    40.00 Ry     beta= 0.10
     Davidson diagonalization with overlap
     ethr =  1.07E-07,  avg # of iterations =  1.0

     total cpu time spent up to now is       23.7 secs

     total energy              =   -1264.06372969 Ry
     Harris-Foulkes estimate   =   -1264.06373301 Ry
     estimated scf accuracy    <       0.00000422 Ry

     iteration #  9     ecut=    40.00 Ry     beta= 0.10
     Davidson diagonalization with overlap
     ethr =  4.40E-09,  avg # of iterations =  3.8

     total cpu time spent up to now is       26.3 secs

     total energy              =   -1264.06372948 Ry
     Harris-Foulkes estimate   =   -1264.06373076 Ry
     estimated scf accuracy    <       0.00000267 Ry

     iteration # 10     ecut=    40.00 Ry     beta= 0.10
     Davidson diagonalization with overlap
     ethr =  2.78E-09,  avg # of iterations =  1.0

     total cpu time spent up to now is       28.1 secs

     End of self-consistent calculation

          k = 0.1667 0.1667 0.1667 ( 15261 PWs)   bands (ev):

    -3.0436  -1.5445  -1.5421  -1.5390  -0.0597  -0.0588  -0.0567  -0.0555
    -0.0542  -0.0506   1.4107   1.4119   1.4141   1.4153   1.4164   1.4170
     1.4192   2.8650   2.8668   2.8679   2.8686   2.8706   2.8732   4.2330
     4.2335   4.2340   4.3299   4.3305   4.3310   5.6413   5.6416   5.6445
     5.6453   5.6466   5.6479   5.7578   7.0587   7.0590   7.0608   7.0624
     7.0634   7.0641   7.0721   7.0746   7.0778   7.4046   7.4051   7.4056
     8.4759   8.4765   8.4782   8.4794   8.4807   8.4812   8.8155   8.8163
     8.8182   8.8196

          k = 0.1667 0.1667-0.5000 ( 15188 PWs)   bands (ev):

    -2.5417  -2.5409  -1.0458  -1.0453  -1.0445  -1.0433   0.4330   0.4341
     0.4357   0.4367   0.4383   0.4385   1.8946   1.8956   1.9013   1.9017
     1.9022   1.9027   3.3436   3.3445   3.3448   3.3452   3.3479   3.3487
     4.7057   4.7060   4.7066   4.7071   4.7716   4.7726   4.7729   4.7738
     4.8021   4.8030   6.1390   6.1395   6.1403   6.1417   6.2227   6.2230
     6.2238   6.2245   7.5392   7.5399   7.5403   7.5418   7.6399   7.6410
     7.8544   7.8548   7.8552   7.8560   8.9773   8.9775   8.9787   8.9792
     9.3375   9.3384

          k = 0.1667-0.5000-0.5000 ( 15204 PWs)   bands (ev):

    -2.0425  -2.0418  -2.0397  -2.0389  -0.5511  -0.5504  -0.5482  -0.5474
     0.9244   0.9251   0.9272   0.9280   2.3768   2.3774   2.3785   2.3795
     2.3804   2.3824   2.3831   2.3836   3.8164   3.8171   3.8182   3.8193
     3.8201   3.8221   3.8228   3.8233   5.1716   5.1724   5.1747   5.1756
     5.2751   5.2758   5.2768   5.2778   5.2789   5.2807   5.2815   5.2821
     6.6672   6.6677   6.6689   6.6696   8.0985   8.0991   8.1001   8.1009
     8.4097   8.4103   8.4121   8.4128   9.3870   9.3892   9.3899   9.3910
     9.3922   9.3944

          k =-0.5000-0.5000-0.5000 ( 15192 PWs)   bands (ev):

    -1.5455  -1.5448  -1.5440  -1.5429  -1.5412  -1.5403  -1.5387  -1.5375
     2.8563   2.8568   2.8577   2.8584   2.8592   2.8598   2.8604   2.8609
     2.8618   2.8622   2.8625   2.8628   2.8631   2.8636   2.8644   2.8646
     2.8652   2.8661   2.8667   2.8671   2.8676   2.8691   2.8707   2.8723
     7.1480   7.1494   7.1498   7.1501   7.1512   7.1518   7.1524   7.1526
     7.1529   7.1532   7.1547   7.1550   7.1554   7.1561   7.1563   7.1565
     7.1572   7.1579   7.1583   7.1586   7.1598   7.1602   7.1615   7.1618
    11.3517  11.3532

          k =-0.1667-0.1667 0.1667 ( 15261 PWs)   bands (ev):

    -3.0436  -1.5440  -1.5421  -1.5396  -0.0595  -0.0581  -0.0568  -0.0554
    -0.0531  -0.0528   1.4102   1.4134   1.4138   1.4148   1.4161   1.4170
     1.4193   2.8659   2.8668   2.8675   2.8687   2.8704   2.8729   4.2332
     4.2335   4.2338   4.3301   4.3304   4.3308   5.6404   5.6434   5.6439
     5.6449   5.6467   5.6481   5.7578   7.0588   7.0602   7.0610   7.0620
     7.0628   7.0637   7.0727   7.0747   7.0772   7.4048   7.4051   7.4054
     8.4762   8.4773   8.4783   8.4791   8.4798   8.4811   8.8156   8.8172
     8.8188   8.8197

          k =-0.1667 0.1667-0.1667 ( 15261 PWs)   bands (ev):

    -3.0436  -1.5445  -1.5419  -1.5393  -0.0599  -0.0585  -0.0563  -0.0552
    -0.0537  -0.0521   1.4112   1.4120   1.4135   1.4146   1.4166   1.4178
     1.4190   2.8662   2.8667   2.8673   2.8684   2.8707   2.8728   4.2330
     4.2335   4.2340   4.3299   4.3305   4.3310   5.6414   5.6421   5.6433
     5.6446   5.6472   5.6487   5.7578   7.0589   7.0597   7.0604   7.0622
     7.0633   7.0642   7.0722   7.0747   7.0774   7.4045   7.4051   7.4057
     8.4761   8.4768   8.4776   8.4796   8.4803   8.4813   8.8153   8.8170
     8.8191   8.8194

          k = 0.1667-0.1667-0.1667 ( 15261 PWs)   bands (ev):

    -3.0436  -1.5441  -1.5425  -1.5390  -0.0599  -0.0581  -0.0567  -0.0561
    -0.0548  -0.0499   1.4113   1.4120   1.4129   1.4149   1.4160   1.4166
     1.4209   2.8651   2.8664   2.8674   2.8692   2.8702   2.8740   4.2329
     4.2335   4.2341   4.3298   4.3305   4.3311   5.6412   5.6423   5.6436
     5.6450   5.6463   5.6489   5.7578   7.0585   7.0598   7.0603   7.0621
     7.0627   7.0644   7.0729   7.0745   7.0779   7.4045   7.4051   7.4058
     8.4756   8.4772   8.4778   8.4797   8.4801   8.4814   8.8159   8.8169
     8.8184   8.8196

          k =-0.1667 0.1667 0.5000 ( 15188 PWs)   bands (ev):

    -2.5417  -2.5409  -1.0464  -1.0453  -1.0444  -1.0429   0.4332   0.4341
     0.4348   0.4363   0.4385   0.4393   1.8944   1.8954   1.9012   1.9019
     1.9021   1.9030   3.3432   3.3441   3.3451   3.3462   3.3476   3.3484
     4.7054   4.7063   4.7064   4.7073   4.7712   4.7721   4.7732   4.7742
     4.8021   4.8030   6.1384   6.1396   6.1405   6.1421   6.2223   6.2231
     6.2239   6.2246   7.5391   7.5402   7.5403   7.5417   7.6399   7.6410
     7.8540   7.8549   7.8553   7.8562   8.9771   8.9777   8.9787   8.9792
     9.3371   9.3391

          k =-0.5000-0.1667 0.1667 ( 15188 PWs)   bands (ev):

    -2.5418  -2.5408  -1.0469  -1.0450  -1.0442  -1.0429   0.4333   0.4348
     0.4354   0.4368   0.4376   0.4383   1.8946   1.8953   1.9014   1.9016
     1.9021   1.9030   3.3431   3.3441   3.3454   3.3463   3.3474   3.3483
     4.7057   4.7060   4.7064   4.7074   4.7710   4.7721   4.7734   4.7744
     4.8019   4.8030   6.1378   6.1399   6.1407   6.1421   6.2224   6.2232
     6.2234   6.2249   7.5387   7.5402   7.5407   7.5417   7.6399   7.6410
     7.8544   7.8548   7.8549   7.8563   8.9767   8.9780   8.9781   8.9799
     9.3373   9.3388

          k = 0.5000-0.1667-0.1667 ( 15188 PWs)   bands (ev):

    -2.5418  -2.5408  -1.0472  -1.0456  -1.0434  -1.0427   0.4322   0.4335
     0.4358   0.4361   0.4385   0.4402   1.8946   1.8952   1.9010   1.9019
     1.9024   1.9028   3.3425   3.3436   3.3456   3.3461   3.3480   3.3490
     4.7054   4.7062   4.7065   4.7073   4.7704   4.7715   4.7740   4.7748
     4.8021   4.8032   6.1376   6.1392   6.1415   6.1422   6.2223   6.2232
     6.2239   6.2246   7.5389   7.5395   7.5405   7.5423   7.6399   7.6410
     7.8540   7.8550   7.8553   7.8561   8.9771   8.9777   8.9788   8.9792
     9.3371   9.3376

          k =-0.1667-0.5000 0.1667 ( 15188 PWs)   bands (ev):

    -2.5414  -2.5412  -1.0470  -1.0462  -1.0435  -1.0422   0.4328   0.4337
     0.4355   0.4359   0.4382   0.4400   1.8947   1.8952   1.9017   1.9018
     1.9021   1.9025   3.3428   3.3430   3.3462   3.3467   3.3476   3.3484
     4.7062   4.7062   4.7065   4.7066   4.7708   4.7709   4.7743   4.7747
     4.8024   4.8027   6.1378   6.1386   6.1414   6.1427   6.2232   6.2233
     6.2236   6.2237   7.5388   7.5398   7.5410   7.5416   7.6403   7.6406
     7.8549   7.8550   7.8553   7.8553   8.9779   8.9779   8.9784   8.9785
     9.3379   9.3388

          k =-0.1667 0.5000-0.1667 ( 15188 PWs)   bands (ev):

    -2.5414  -2.5412  -1.0471  -1.0467  -1.0430  -1.0422   0.4330   0.4337
     0.4358   0.4368   0.4377   0.4391   1.8946   1.8951   1.9017   1.9019
     1.9021   1.9026   3.3424   3.3428   3.3462   3.3467   3.3481   3.3485
     4.7061   4.7062   4.7062   4.7070   4.7704   4.7707   4.7748   4.7751
     4.8023   4.8026   6.1377   6.1382   6.1419   6.1427   6.2229   6.2232
     6.2234   6.2243   7.5391   7.5394   7.5411   7.5417   7.6403   7.6406
     7.8546   7.8549   7.8550   7.8559   8.9775   8.9778   8.9784   8.9791
     9.3371   9.3391

          k =-0.5000 0.1667 0.5000 ( 15204 PWs)   bands (ev):

    -2.0432  -2.0422  -2.0391  -2.0383  -0.5518  -0.5508  -0.5477  -0.5469
     0.9236   0.9247   0.9278   0.9286   2.3765   2.3773   2.3779   2.3797
     2.3811   2.3819   2.3829   2.3843   3.8162   3.8169   3.8177   3.8195
     3.8208   3.8217   3.8227   3.8241   5.1709   5.1720   5.1753   5.1762
     5.2747   5.2757   5.2762   5.2780   5.2795   5.2804   5.2813   5.2828
     6.6666   6.6677   6.6691   6.6699   8.0979   8.0991   8.1003   8.1012
     8.4091   8.4100   8.4125   8.4133   9.3868   9.3878   9.3891   9.3923
     9.3934   9.3951

          k =-0.5000 0.5000 0.1667 ( 15204 PWs)   bands (ev):

    -2.0420  -2.0413  -2.0400  -2.0396  -0.5505  -0.5499  -0.5485  -0.5482
     0.9249   0.9256   0.9269   0.9273   2.3768   2.3779   2.3786   2.3799
     2.3806   2.3820   2.3827   2.3832   3.8165   3.8175   3.8183   3.8196
     3.8203   3.8217   3.8225   3.8230   5.1722   5.1730   5.1744   5.1748
     5.2752   5.2763   5.2769   5.2782   5.2790   5.2804   5.2810   5.2816
     6.6673   6.6679   6.6689   6.6691   8.0986   8.0992   8.1003   8.1004
     8.4101   8.4107   8.4119   8.4122   9.3870   9.3886   9.3899   9.3915
     9.3926   9.3939

     the Fermi energy is     7.8537 ev

!    total energy              =   -1264.06372947 Ry
     Harris-Foulkes estimate   =   -1264.06372971 Ry
     estimated scf accuracy    <       0.00000031 Ry

     total all-electron energy =    -15540.632751 Ry

     The total energy is the sum of the following terms:

     one-electron contribution =     101.26402391 Ry
     hartree contribution      =       0.20238573 Ry
     xc contribution           =     -82.91808245 Ry
     ewald contribution        =    -172.93188273 Ry
     one-center paw contrib.   =   -1109.67957986 Ry
     smearing contrib. (-TS)   =      -0.00059406 Ry

     convergence has been achieved in  10 iterations

     Forces acting on atoms (cartesian axes, Ry/au):

     atom    1 type  1   force =     0.00009514    0.00014841    0.00006840
     atom    2 type  1   force =     0.00001078    0.00019570    0.00018817
     atom    3 type  1   force =     0.00031045   -0.00007694   -0.00043232
     atom    4 type  1   force =    -0.00002613   -0.00017871   -0.00025123
     atom    5 type  1   force =    -0.00035481   -0.00023861    0.00024371
     atom    6 type  1   force =    -0.00002599    0.00041903   -0.00003678
     atom    7 type  1   force =    -0.00006017   -0.00061267    0.00027110
     atom    8 type  1   force =     0.00008051   -0.00010972   -0.00033155
     atom    9 type  1   force =     0.00010088    0.00000721    0.00017254
     atom   10 type  1   force =    -0.00007818   -0.00003434   -0.00052930
     atom   11 type  1   force =    -0.00012735   -0.00038515   -0.00030083
     atom   12 type  1   force =    -0.00007208    0.00007488    0.00005432
     atom   13 type  1   force =    -0.00006715   -0.00024806   -0.00013370
     atom   14 type  1   force =     0.00007953    0.00020387    0.00041838
     atom   15 type  1   force =    -0.00039647    0.00018580    0.00042096
     atom   16 type  1   force =     0.00063997    0.00054057    0.00006585
     atom   17 type  1   force =    -0.00047540    0.00015795    0.00011420
     atom   18 type  1   force =     0.00010436   -0.00008284    0.00054322
     atom   19 type  1   force =     0.00039051    0.00016971   -0.00000572
     atom   20 type  1   force =     0.00000354    0.00016973    0.00012336
     atom   21 type  1   force =     0.00017380   -0.00042303   -0.00000516
     atom   22 type  1   force =    -0.00022440    0.00056616    0.00006152
     atom   23 type  1   force =     0.00000598   -0.00020265   -0.00030450
     atom   24 type  1   force =     0.00003528    0.00008410   -0.00020405
     atom   25 type  1   force =     0.00008595   -0.00012283    0.00034499
     atom   26 type  1   force =     0.00018360   -0.00019010   -0.00015561
     atom   27 type  1   force =    -0.00027237   -0.00014637    0.00018420
     atom   28 type  1   force =    -0.00021672    0.00025917    0.00000280
     atom   29 type  1   force =     0.00082119   -0.00029316   -0.00023753
     atom   30 type  1   force =    -0.00036434    0.00008129    0.00022879
     atom   31 type  1   force =    -0.00017991   -0.00020868   -0.00046656
     atom   32 type  1   force =    -0.00018000    0.00029027   -0.00011166

     Total force =     0.002637     Total SCF correction =     0.000635
     SCF correction compared to forces is large: reduce conv_thr to get better values


     Computing stress (Cartesian axis) and pressure

          total   stress  (Ry/bohr**3)                   (kbar)     P=   -0.90
  -0.00000611  -0.00000001   0.00000002         -0.90     -0.00      0.00
  -0.00000001  -0.00000600  -0.00000001         -0.00     -0.88     -0.00
   0.00000002  -0.00000001  -0.00000628          0.00     -0.00     -0.92


     Writing output data file fe_scf_fcc_2.save/
 
     init_run     :      1.56s CPU      1.70s WALL (       1 calls)
     electrons    :     24.81s CPU     25.78s WALL (       1 calls)
     forces       :      0.36s CPU      0.39s WALL (       1 calls)
     stress       :      1.36s CPU      1.36s WALL (       1 calls)

     Called by init_run:
     wfcinit      :      1.41s CPU      1.50s WALL (       1 calls)
     potinit      :      0.08s CPU      0.08s WALL (       1 calls)
     hinit0       :      0.04s CPU      0.08s WALL (       1 calls)

     Called by electrons:
     c_bands      :     20.71s CPU     21.42s WALL (      11 calls)
     sum_band     :      3.23s CPU      3.36s WALL (      11 calls)
     v_of_rho     :      0.11s CPU      0.12s WALL (      11 calls)
     newd         :      0.08s CPU      0.09s WALL (      11 calls)
     PAW_pot      :      0.69s CPU      0.71s WALL (      11 calls)
     mix_rho      :      0.06s CPU      0.06s WALL (      11 calls)

     Called by c_bands:
     init_us_2    :      0.42s CPU      0.43s WALL (     350 calls)
     cegterg      :     19.46s CPU     20.00s WALL (     154 calls)

     Called by sum_band:
     sum_band:bec :      0.02s CPU      0.02s WALL (     154 calls)
     addusdens    :      0.06s CPU      0.08s WALL (      11 calls)

     Called by *egterg:
     h_psi        :     13.91s CPU     14.42s WALL (     494 calls)
     s_psi        :      1.34s CPU      1.35s WALL (     494 calls)
     g_psi        :      0.08s CPU      0.08s WALL (     326 calls)
     cdiaghg      :      2.77s CPU      2.78s WALL (     466 calls)

     Called by h_psi:
     h_psi:pot    :     13.84s CPU     14.35s WALL (     494 calls)
     h_psi:calbec :      1.46s CPU      1.56s WALL (     494 calls)
     vloc_psi     :     11.05s CPU     11.45s WALL (     494 calls)
     add_vuspsi   :      1.33s CPU      1.34s WALL (     494 calls)

     General routines
     calbec       :      2.38s CPU      2.55s WALL (     718 calls)
     fft          :      0.12s CPU      0.17s WALL (     148 calls)
     ffts         :      0.01s CPU      0.01s WALL (      11 calls)
     fftw         :     12.17s CPU     12.60s WALL (   57090 calls)
 
     Parallel routines
     fft_scatt_xy :      2.15s CPU      2.22s WALL (   57249 calls)
     fft_scatt_yz :      5.95s CPU      6.19s WALL (   57249 calls)
 
     PWSCF        :    28.90s CPU        30.53s WALL

 
   This run was terminated on:   7:47: 7   9Mar2020            

=------------------------------------------------------------------------------=
   JOB DONE.
=------------------------------------------------------------------------------=
