
     Program PWSCF v.6.3 starts on  9Mar2020 at  8: 3:28 

     This program is part of the open-source Quantum ESPRESSO suite
     for quantum simulation of materials; please cite
         "P. Giannozzi et al., J. Phys.:Condens. Matter 21 395502 (2009);
         "P. Giannozzi et al., J. Phys.:Condens. Matter 29 465901 (2017);
          URL http://www.quantum-espresso.org", 
     in publications or presentations arising from this work. More details at
     http://www.quantum-espresso.org/quote

     Parallel version (MPI & OpenMP), running on      20 processor cores
     Number of MPI processes:                20
     Threads/MPI process:                     1

     MPI processes distributed on     1 nodes
     R & G space division:  proc/nbgrp/npool/nimage =      20
     Reading input from wd/kpoints/file_000109.in
Warning: card &IONS ignored
Warning: card ION_DYNAMICS = 'BFGS', ignored
Warning: card / ignored
Warning: card &CELL ignored
Warning: card CELL_DYNAMICS = 'BFGS', ignored
Warning: card CELL_FACTOR = 2.0, ignored
Warning: card PRESS = 0.0, ignored
Warning: card / ignored

     Current dimensions of program PWSCF are:
     Max number of different atomic species (ntypx) = 10
     Max number of k-points (npk) =  40000
     Max angular momentum in pseudopotentials (lmaxx) =  3
     Message from routine read_upf::
     Pseudo file /rds/homes/b/bxp912/pp/Al.pbe-nl-kjpaw_psl.1.0.0.UPF has been successfully fixed on the fly.
To avoid this message in the future you can permanently fix 
 your pseudo files following instructions given in: 
https://gitlab.com/QEF/q-e/blob/master/upftools/how_to_fix_upf.md
               file Al.pbe-nl-kjpaw_psl.1.0.0.UPF: wavefunction(s)  3S 3P renormalized

     Subspace diagonalization in iterative solution of the eigenvalue problem:
     a serial algorithm will be used

 
     Parallelization info
     --------------------
     sticks:   dense  smooth     PW     G-vecs:    dense   smooth      PW
     Min         148     148     41                 6092     6092     891
     Max         149     149     42                 6097     6097     894
     Sum        2965    2965    829               121865   121865   17845
 


     bravais-lattice index     =            0
     lattice parameter (alat)  =      15.2712  a.u.
     unit-cell volume          =    3561.3897 (a.u.)^3
     number of atoms/cell      =           32
     number of atomic types    =            1
     number of electrons       =        96.00
     number of Kohn-Sham states=           58
     kinetic-energy cutoff     =      40.0000  Ry
     charge density cutoff     =     160.0000  Ry
     convergence threshold     =      1.0E-06
     mixing beta               =       0.1000
     number of iterations used =           10  TF        mixing
     Exchange-correlation      = SLA PW PBX PBC ( 1  4  3  4 0 0)

     celldm(1)=  15.271200  celldm(2)=   0.000000  celldm(3)=   0.000000
     celldm(4)=   0.000000  celldm(5)=   0.000000  celldm(6)=   0.000000

     crystal axes: (cart. coord. in units of alat)
               a(1) = (   1.000000   0.000000   0.000000 )  
               a(2) = (   0.000000   1.000000   0.000000 )  
               a(3) = (   0.000000   0.000000   1.000000 )  

     reciprocal axes: (cart. coord. in units 2 pi/alat)
               b(1) = (  1.000000  0.000000  0.000000 )  
               b(2) = (  0.000000  1.000000  0.000000 )  
               b(3) = (  0.000000  0.000000  1.000000 )  


     PseudoPot. # 1 for Al read from file:
     /rds/homes/b/bxp912/pp/Al.pbe-nl-kjpaw_psl.1.0.0.UPF
     MD5 check sum: 339dbea23cf3ab9a065ad45c0f9085d7
     Pseudo is Projector augmented-wave + core cor, Zval =  3.0
     Generated using "atomic" code by A. Dal Corso v.5.1
     Shape of augmentation charge: PSQ
     Using radial grid of 1135 points,  4 beta functions with: 
                l(1) =   0
                l(2) =   0
                l(3) =   1
                l(4) =   1
     Q(r) pseudized with 0 coefficients 


     atomic species   valence    mass     pseudopotential
        Al             3.00    26.98200     Al( 1.00)

     No symmetry found



   Cartesian axes

     site n.     atom                  positions (alat units)
         1           Al  tau(   1) = (  -0.0000327   0.0000095   0.0000680  )
         2           Al  tau(   2) = (   0.2500796   0.2498100   0.0000703  )
         3           Al  tau(   3) = (   0.2499071   0.0000305   0.2502955  )
         4           Al  tau(   4) = (  -0.0000200   0.2502187   0.2501837  )
         5           Al  tau(   5) = (   0.0002558   0.0002521   0.4998810  )
         6           Al  tau(   6) = (   0.2501194   0.2498326   0.5000036  )
         7           Al  tau(   7) = (   0.2500278   0.0001539   0.7498880  )
         8           Al  tau(   8) = (   0.0000549   0.2501136   0.7502101  )
         9           Al  tau(   9) = (   0.0002375   0.5001078  -0.0000154  )
        10           Al  tau(  10) = (   0.2501396   0.7501762   0.0004054  )
        11           Al  tau(  11) = (   0.2501891   0.5001088   0.2502510  )
        12           Al  tau(  12) = (   0.0000383   0.7500455   0.2500253  )
        13           Al  tau(  13) = (   0.0001102   0.5001562   0.5000990  )
        14           Al  tau(  14) = (   0.2499640   0.7500632   0.4998706  )
        15           Al  tau(  15) = (   0.2503366   0.4997894   0.7496960  )
        16           Al  tau(  16) = (  -0.0003280   0.7497055   0.7499931  )
        17           Al  tau(  17) = (   0.5002037  -0.0001004  -0.0000387  )
        18           Al  tau(  18) = (   0.7499123   0.2500941  -0.0002332  )
        19           Al  tau(  19) = (   0.7496354  -0.0000959   0.2500771  )
        20           Al  tau(  20) = (   0.4999751   0.2499614   0.2498317  )
        21           Al  tau(  21) = (   0.4999211   0.0002929   0.4999726  )
        22           Al  tau(  22) = (   0.7500684   0.2496958   0.4999523  )
        23           Al  tau(  23) = (   0.7500357  -0.0000687   0.7500257  )
        24           Al  tau(  24) = (   0.5000114   0.2498864   0.7499948  )
        25           Al  tau(  25) = (   0.4998526   0.5001156  -0.0002192  )
        26           Al  tau(  26) = (   0.7497723   0.7500978   0.0002736  )
        27           Al  tau(  27) = (   0.7501007   0.4998018   0.2499462  )
        28           Al  tau(  28) = (   0.5000878   0.7497908   0.2502093  )
        29           Al  tau(  29) = (   0.4996761   0.5001027   0.5000404  )
        30           Al  tau(  30) = (   0.7501658   0.7499872   0.4998547  )
        31           Al  tau(  31) = (   0.7499472   0.5000095   0.7501393  )
        32           Al  tau(  32) = (   0.5000142   0.7499486   0.7499177  )

     number of k points=    63  Marzari-Vanderbilt smearing, width (Ry)=  0.0200
                       cart. coord. in units 2pi/alat
        k(    1) = (   0.1000000   0.1000000   0.1000000), wk =   0.0320000
        k(    2) = (   0.1000000   0.1000000   0.3000000), wk =   0.0320000
        k(    3) = (   0.1000000   0.1000000  -0.5000000), wk =   0.0320000
        k(    4) = (   0.1000000   0.3000000   0.3000000), wk =   0.0320000
        k(    5) = (   0.1000000   0.3000000  -0.5000000), wk =   0.0320000
        k(    6) = (   0.1000000  -0.5000000  -0.5000000), wk =   0.0320000
        k(    7) = (   0.3000000   0.3000000   0.3000000), wk =   0.0320000
        k(    8) = (   0.3000000   0.3000000  -0.5000000), wk =   0.0320000
        k(    9) = (   0.3000000  -0.5000000  -0.5000000), wk =   0.0320000
        k(   10) = (  -0.5000000  -0.5000000  -0.5000000), wk =   0.0160000
        k(   11) = (  -0.1000000  -0.1000000   0.1000000), wk =   0.0320000
        k(   12) = (  -0.1000000   0.1000000  -0.1000000), wk =   0.0320000
        k(   13) = (   0.1000000  -0.1000000  -0.1000000), wk =   0.0320000
        k(   14) = (  -0.1000000  -0.1000000   0.3000000), wk =   0.0320000
        k(   15) = (  -0.1000000   0.1000000  -0.3000000), wk =   0.0320000
        k(   16) = (   0.1000000  -0.1000000  -0.3000000), wk =   0.0320000
        k(   17) = (   0.3000000  -0.1000000   0.1000000), wk =   0.0320000
        k(   18) = (  -0.3000000  -0.1000000  -0.1000000), wk =   0.0320000
        k(   19) = (   0.3000000   0.1000000  -0.1000000), wk =   0.0320000
        k(   20) = (  -0.3000000   0.1000000   0.1000000), wk =   0.0320000
        k(   21) = (  -0.1000000   0.3000000   0.1000000), wk =   0.0320000
        k(   22) = (  -0.1000000  -0.3000000  -0.1000000), wk =   0.0320000
        k(   23) = (   0.1000000   0.3000000  -0.1000000), wk =   0.0320000
        k(   24) = (   0.1000000  -0.3000000   0.1000000), wk =   0.0320000
        k(   25) = (  -0.1000000   0.1000000   0.5000000), wk =   0.0320000
        k(   26) = (  -0.5000000  -0.1000000   0.1000000), wk =   0.0320000
        k(   27) = (   0.5000000  -0.1000000  -0.1000000), wk =   0.0320000
        k(   28) = (  -0.1000000  -0.5000000   0.1000000), wk =   0.0320000
        k(   29) = (  -0.1000000   0.5000000  -0.1000000), wk =   0.0320000
        k(   30) = (  -0.1000000  -0.3000000   0.3000000), wk =   0.0320000
        k(   31) = (  -0.1000000   0.3000000  -0.3000000), wk =   0.0320000
        k(   32) = (   0.1000000  -0.3000000  -0.3000000), wk =   0.0320000
        k(   33) = (   0.3000000   0.1000000  -0.3000000), wk =   0.0320000
        k(   34) = (  -0.3000000  -0.1000000  -0.3000000), wk =   0.0320000
        k(   35) = (   0.3000000  -0.1000000   0.3000000), wk =   0.0320000
        k(   36) = (  -0.3000000   0.1000000   0.3000000), wk =   0.0320000
        k(   37) = (   0.3000000  -0.3000000   0.1000000), wk =   0.0320000
        k(   38) = (  -0.3000000  -0.3000000  -0.1000000), wk =   0.0320000
        k(   39) = (   0.3000000   0.3000000  -0.1000000), wk =   0.0320000
        k(   40) = (  -0.3000000   0.3000000   0.1000000), wk =   0.0320000
        k(   41) = (  -0.1000000   0.3000000   0.5000000), wk =   0.0320000
        k(   42) = (   0.3000000   0.1000000   0.5000000), wk =   0.0320000
        k(   43) = (   0.3000000  -0.1000000  -0.5000000), wk =   0.0320000
        k(   44) = (  -0.5000000  -0.3000000   0.1000000), wk =   0.0320000
        k(   45) = (   0.5000000  -0.3000000  -0.1000000), wk =   0.0320000
        k(   46) = (  -0.1000000  -0.5000000   0.3000000), wk =   0.0320000
        k(   47) = (  -0.1000000   0.5000000  -0.3000000), wk =   0.0320000
        k(   48) = (   0.3000000  -0.5000000   0.1000000), wk =   0.0320000
        k(   49) = (   0.3000000   0.5000000  -0.1000000), wk =   0.0320000
        k(   50) = (  -0.5000000   0.1000000   0.3000000), wk =   0.0320000
        k(   51) = (   0.5000000  -0.1000000   0.3000000), wk =   0.0320000
        k(   52) = (  -0.5000000   0.1000000   0.5000000), wk =   0.0320000
        k(   53) = (  -0.5000000   0.5000000   0.1000000), wk =   0.0320000
        k(   54) = (  -0.3000000  -0.3000000   0.3000000), wk =   0.0320000
        k(   55) = (  -0.3000000   0.3000000  -0.3000000), wk =   0.0320000
        k(   56) = (   0.3000000  -0.3000000  -0.3000000), wk =   0.0320000
        k(   57) = (  -0.3000000   0.3000000   0.5000000), wk =   0.0320000
        k(   58) = (  -0.5000000  -0.3000000   0.3000000), wk =   0.0320000
        k(   59) = (   0.5000000  -0.3000000  -0.3000000), wk =   0.0320000
        k(   60) = (  -0.3000000  -0.5000000   0.3000000), wk =   0.0320000
        k(   61) = (  -0.3000000   0.5000000  -0.3000000), wk =   0.0320000
        k(   62) = (  -0.5000000   0.3000000   0.5000000), wk =   0.0320000
        k(   63) = (  -0.5000000   0.5000000   0.3000000), wk =   0.0320000

     Dense  grid:   121865 G-vectors     FFT dimensions: (  64,  64,  64)

     Estimated max dynamical RAM per process >      63.57 MB

     Estimated total dynamical RAM >       1.24 GB

     Initial potential from superposition of free atoms

     starting charge   95.92671, renormalised to   96.00000
     Starting wfcs are  128 randomized atomic wfcs
     Checking if some PAW data can be deallocated... 

     total cpu time spent up to now is        9.9 secs

     Self-consistent Calculation

     iteration #  1     ecut=    40.00 Ry     beta= 0.10
     Davidson diagonalization with overlap
     ethr =  1.00E-02,  avg # of iterations =  3.0

     Threshold (ethr) on eigenvalues was too large:
     Diagonalizing with lowered threshold

     Davidson diagonalization with overlap
     ethr =  1.92E-04,  avg # of iterations =  3.8

     total cpu time spent up to now is       40.3 secs

     total energy              =   -1264.13839362 Ry
     Harris-Foulkes estimate   =   -1264.14471061 Ry
     estimated scf accuracy    <       0.18017503 Ry

     iteration #  2     ecut=    40.00 Ry     beta= 0.10
     Davidson diagonalization with overlap
     ethr =  1.88E-04,  avg # of iterations =  1.1

     total cpu time spent up to now is       48.0 secs

     total energy              =   -1264.09063157 Ry
     Harris-Foulkes estimate   =   -1264.13922383 Ry
     estimated scf accuracy    <       0.15640453 Ry

     iteration #  3     ecut=    40.00 Ry     beta= 0.10
     Davidson diagonalization with overlap
     ethr =  1.63E-04,  avg # of iterations =  1.0

     total cpu time spent up to now is       58.5 secs

     total energy              =   -1264.09354767 Ry
     Harris-Foulkes estimate   =   -1264.09367897 Ry
     estimated scf accuracy    <       0.00061340 Ry

     iteration #  4     ecut=    40.00 Ry     beta= 0.10
     Davidson diagonalization with overlap
     ethr =  6.39E-07,  avg # of iterations =  5.0

     total cpu time spent up to now is       77.8 secs

     total energy              =   -1264.09419245 Ry
     Harris-Foulkes estimate   =   -1264.09434895 Ry
     estimated scf accuracy    <       0.00037514 Ry

     iteration #  5     ecut=    40.00 Ry     beta= 0.10
     Davidson diagonalization with overlap
     ethr =  3.91E-07,  avg # of iterations =  1.3

     total cpu time spent up to now is       85.9 secs

     total energy              =   -1264.09397519 Ry
     Harris-Foulkes estimate   =   -1264.09420369 Ry
     estimated scf accuracy    <       0.00024369 Ry

     iteration #  6     ecut=    40.00 Ry     beta= 0.10
     Davidson diagonalization with overlap
     ethr =  2.54E-07,  avg # of iterations =  2.0

     total cpu time spent up to now is      102.1 secs

     total energy              =   -1264.09404290 Ry
     Harris-Foulkes estimate   =   -1264.09404074 Ry
     estimated scf accuracy    <       0.00001020 Ry

     iteration #  7     ecut=    40.00 Ry     beta= 0.10
     Davidson diagonalization with overlap
     ethr =  1.06E-08,  avg # of iterations =  3.6

     total cpu time spent up to now is      113.6 secs

     total energy              =   -1264.09403674 Ry
     Harris-Foulkes estimate   =   -1264.09404393 Ry
     estimated scf accuracy    <       0.00000549 Ry

     iteration #  8     ecut=    40.00 Ry     beta= 0.10
     Davidson diagonalization with overlap
     ethr =  5.72E-09,  avg # of iterations =  2.2

     total cpu time spent up to now is      123.9 secs

     End of self-consistent calculation

          k = 0.1000 0.1000 0.1000 ( 15233 PWs)   bands (ev):

    -3.1653  -1.3660  -1.3637  -1.3609  -0.4739  -0.4716  -0.4687   0.4135
     0.4158   0.4186   1.2942   1.2945   1.2971   1.2977   1.2990   1.3003
     2.1702   2.1725   2.1737   2.1756   3.0358   3.0366   3.0373   3.9312
     3.9319   3.9327   4.6170   4.6176   4.6182   4.7862   6.2930   6.2933
     6.2963   6.2969   6.2981   6.2993   6.7983   6.7989   6.7996   7.1376
     7.1381   7.1400   7.1414   7.1425   7.1430   7.9918   7.9942   7.9970
     8.4389   8.4395   8.4412   8.4422   8.4440   8.4455   8.8311   8.8318
     8.8341   8.8349

          k = 0.1000 0.1000 0.3000 ( 15215 PWs)   bands (ev):

    -2.9841  -2.0815  -1.1851  -1.1841  -0.2954  -0.2945  -0.2930  -0.2907
     0.5901   0.5911   0.5922   0.5949   1.4711   1.4731   1.4751   2.3445
     2.3456   2.3464   2.3477   2.3501   3.1903   3.2086   3.2144   3.2155
     4.1042   4.7862   4.7867   4.9059   4.9071   4.9563   4.9570   5.6283
     5.6289   5.7454   5.7465   5.8130   6.4889   6.4900   6.6304   6.9698
     6.9704   7.3177   7.3188   7.3222   7.3234   7.4777   7.4786   7.7554
     7.7564   8.1612   8.1619   8.2306   8.2307   8.3236   8.5392   8.7129
     8.7136   9.4631

          k = 0.1000 0.1000-0.5000 ( 15226 PWs)   bands (ev):

    -2.6237  -2.6210  -0.8292  -0.8285  -0.8267  -0.8251   0.0596   0.0603
     0.0621   0.0637   0.9444   0.9471   1.8159   1.8171   1.8219   1.8226
     1.8247   1.8255   2.6938   2.6965   3.5541   3.5553   3.5554   3.5565
     4.4134   4.4146   4.4147   4.4158   5.1222   5.1226   5.1249   5.1256
     5.2927   5.2940   6.1462   6.1467   6.1475   6.1484   6.8165   6.8170
     6.8191   6.8207   6.9982   6.9995   7.3052   7.3058   7.3079   7.3088
     7.6550   7.6555   7.6575   7.6591   9.0701   9.0706   9.0724   9.0740
     9.3464   9.3482

          k = 0.1000 0.3000 0.3000 ( 15228 PWs)   bands (ev):

    -2.8031  -1.9032  -1.9001  -1.0066  -1.0051  -0.1178  -0.1161  -0.1132
     0.7653   0.7669   0.7675   0.7698   0.7725   1.6457   1.6466   1.6494
     2.5187   2.5219   3.3624   3.3636   3.3790   3.3802   3.3858   3.3887
     4.2217   4.2249   4.2473   4.2768   4.2780   4.9551   5.0652   5.0663
     5.7896   5.7930   5.9492   5.9523   5.9593   5.9604   5.9821   6.6505
     6.7650   6.7671   6.7978   6.8010   6.8349   7.1356   8.0662   8.0684
     8.3126   8.3162   8.4889   8.4906   8.7018   8.7032   8.9096   9.1653
     9.1672   9.3235

          k = 0.1000 0.3000-0.5000 ( 15214 PWs)   bands (ev):

    -2.4432  -2.4405  -1.5440  -1.5413  -0.6504  -0.6477   0.2352   0.2384
     0.2403   0.2416   1.1172   1.1203   1.1217   1.1231   1.9909   1.9922
     2.8618   2.8631   2.8664   2.8691   3.7064   3.7092   3.7219   3.7243
     3.7266   3.7280   4.5742   4.5753   4.6167   4.6179   5.2902   5.2930
     5.4259   5.4270   5.4502   5.4528   5.4637   5.4651   6.1538   6.1565
     6.2887   6.2914   7.1658   7.1672   7.4109   7.4132   8.0137   8.0150
     8.0774   8.0785   8.3969   8.3996   8.6590   8.6619   8.9967   8.9993
     9.5435   9.5451

          k = 0.1000-0.5000-0.5000 ( 15200 PWs)   bands (ev):

    -2.0838  -2.0828  -2.0804  -2.0790  -0.2955  -0.2944  -0.2921  -0.2906
     0.5901   0.5911   0.5935   0.5950   2.3366   2.3382   2.3388   2.3398
     2.3406   2.3428   2.3438   2.3444   4.0572   4.0588   4.0595   4.0606
     4.0611   4.0635   4.0644   4.0651   4.9575   4.9589   4.9594   4.9604
     4.9615   4.9634   4.9645   4.9651   5.6203   5.6215   5.6240   5.6256
     6.6125   6.6131   6.6145   6.6152   7.9049   7.9057   7.9077   7.9088
     8.3420   8.3426   8.3438   8.3446   9.1853   9.1859   9.1872   9.1880
     9.8166   9.8196

          k = 0.3000 0.3000 0.3000 ( 15225 PWs)   bands (ev):

    -2.6224  -1.7245  -1.7222  -1.7194  -0.8298  -0.8275  -0.8246   0.0620
     0.9411   0.9434   0.9463   1.8189   1.8192   1.8219   1.8225   1.8237
     1.8250   2.6931   2.6938   2.6946   3.5348   3.5355   3.5363   4.3903
     4.3906   4.3934   4.3941   4.3953   4.3966   4.4056   4.4079   4.4108
     5.2783   5.2807   5.2836   5.2973   5.2981   5.2989   6.9572   6.9576
     6.9592   6.9606   6.9617   6.9623   7.8103   7.8108   7.8123   7.8136
     7.8148   7.8153   7.8517   8.8266   8.8277   8.8289   9.5312   9.5318
     9.5323   9.7438

          k = 0.3000 0.3000-0.5000 ( 15196 PWs)   bands (ev):

    -2.2629  -2.2602  -1.3653  -1.3646  -1.3628  -1.3612  -0.4723  -0.4696
     1.2937   1.2944   1.2963   1.2979   2.1653   2.1666   2.1699   2.1706
     2.1727   2.1735   3.0348   3.0360   3.0361   3.0372   3.8780   3.8785
     3.8805   3.8815   3.8893   3.8904   4.7228   4.7236   4.7254   4.7270
     4.7926   4.7952   5.6411   5.6423   5.6425   5.6435   6.4843   6.4849
     6.4856   6.4866   7.3011   7.3017   7.3036   7.3053   8.1105   8.1112
     8.1117   8.1127   8.9824   8.9837   8.9840   8.9850   9.0244   9.0258
     9.2695   9.2717

          k = 0.3000-0.5000-0.5000 ( 15212 PWs)   bands (ev):

    -1.9040  -1.9029  -1.9006  -1.8991  -1.0082  -1.0071  -1.0047  -1.0033
     1.6443   1.6454   1.6478   1.6492   2.5108   2.5124   2.5130   2.5140
     2.5148   2.5170   2.5180   2.5187   3.3774   3.3790   3.3796   3.3806
     3.3814   3.3836   3.3846   3.3853   4.2195   4.2206   4.2230   4.2246
     5.9701   5.9717   5.9722   5.9733   5.9742   5.9763   5.9774   5.9781
     6.8087   6.8093   6.8105   6.8112   7.6638   7.6644   7.6656   7.6664
     8.4682   8.4699   8.4706   8.4718   8.4727   8.4750   8.4761   8.4770
     9.5920   9.5946

          k =-0.5000-0.5000-0.5000 ( 15192 PWs)   bands (ev):

    -1.5475  -1.5467  -1.5438  -1.5433  -1.5423  -1.5403  -1.5400  -1.5373
     2.8546   2.8550   2.8564   2.8570   2.8582   2.8591   2.8594   2.8604
     2.8607   2.8613   2.8616   2.8621   2.8626   2.8630   2.8636   2.8637
     2.8645   2.8655   2.8659   2.8663   2.8673   2.8686   2.8702   2.8722
     7.1469   7.1478   7.1485   7.1491   7.1504   7.1509   7.1514   7.1516
     7.1517   7.1524   7.1536   7.1541   7.1548   7.1550   7.1553   7.1560
     7.1564   7.1571   7.1574   7.1577   7.1586   7.1593   7.1611   7.1613
    11.3515  11.5653

          k =-0.1000-0.1000 0.1000 ( 15233 PWs)   bands (ev):

    -3.1653  -1.3655  -1.3637  -1.3614  -0.4734  -0.4716  -0.4692   0.4140
     0.4158   0.4181   1.2932   1.2960   1.2964   1.2976   1.2990   1.3006
     2.1708   2.1726   2.1736   2.1750   3.0361   3.0366   3.0370   3.9315
     3.9319   3.9324   4.6172   4.6176   4.6179   4.7862   6.2919   6.2950
     6.2957   6.2964   6.2982   6.2996   6.7985   6.7989   6.7993   7.1375
     7.1393   7.1401   7.1408   7.1418   7.1430   7.9924   7.9942   7.9965
     8.4386   8.4399   8.4413   8.4426   8.4436   8.4452   8.8310   8.8322
     8.8334   8.8349

          k =-0.1000 0.1000-0.1000 ( 15233 PWs)   bands (ev):

    -3.1653  -1.3660  -1.3635  -1.3611  -0.4739  -0.4714  -0.4689   0.4135
     0.4159   0.4184   1.2942   1.2948   1.2960   1.2971   1.2996   1.3012
     2.1703   2.1728   2.1735   2.1753   3.0358   3.0366   3.0374   3.9311
     3.9319   3.9327   4.6169   4.6176   4.6182   4.7862   6.2932   6.2938
     6.2949   6.2961   6.2987   6.3002   6.7982   6.7989   6.7996   7.1378
     7.1386   7.1393   7.1413   7.1424   7.1432   7.9919   7.9943   7.9968
     8.4387   8.4397   8.4410   8.4425   8.4439   8.4454   8.8316   8.8321
     8.8338   8.8355

          k = 0.1000-0.1000-0.1000 ( 15233 PWs)   bands (ev):

    -3.1653  -1.3657  -1.3641  -1.3608  -0.4735  -0.4720  -0.4687   0.4138
     0.4154   0.4187   1.2940   1.2949   1.2965   1.2975   1.2988   1.3011
     2.1707   2.1721   2.1736   2.1756   3.0357   3.0366   3.0375   3.9310
     3.9319   3.9328   4.6168   4.6176   4.6183   4.7862   6.2928   6.2941
     6.2954   6.2965   6.2977   6.3004   6.7981   6.7989   6.7997   7.1374
     7.1390   7.1394   7.1414   7.1418   7.1436   7.9922   7.9937   7.9971
     8.4392   8.4395   8.4408   8.4424   8.4437   8.4458   8.8308   8.8327
     8.8330   8.8349

          k =-0.1000-0.1000 0.3000 ( 15215 PWs)   bands (ev):

    -2.9841  -2.0815  -1.1851  -1.1841  -0.2953  -0.2945  -0.2924  -0.2913
     0.5897   0.5915   0.5927   0.5944   1.4711   1.4729   1.4753   2.3445
     2.3450   2.3468   2.3479   2.3502   3.1904   3.2083   3.2143   3.2158
     4.1042   4.7862   4.7867   4.9059   4.9071   4.9563   4.9570   5.6283
     5.6289   5.7453   5.7465   5.8130   6.4889   6.4900   6.6304   6.9698
     6.9704   7.3177   7.3185   7.3222   7.3237   7.4778   7.4786   7.7554
     7.7564   8.1612   8.1618   8.2307   8.2308   8.3236   8.5392   8.7129
     8.7136   9.4630

          k =-0.1000 0.1000-0.3000 ( 15215 PWs)   bands (ev):

    -2.9841  -2.0815  -1.1856  -1.1837  -0.2957  -0.2932  -0.2930  -0.2916
     0.5893   0.5912   0.5932   0.5946   1.4715   1.4732   1.4745   2.3443
     2.3452   2.3466   2.3486   2.3497   3.1904   3.2082   3.2139   3.2164
     4.1042   4.7859   4.7870   4.9055   4.9075   4.9559   4.9574   5.6280
     5.6292   5.7449   5.7469   5.8130   6.4885   6.4905   6.6304   6.9695
     6.9707   7.3181   7.3191   7.3215   7.3235   7.4773   7.4790   7.7549
     7.7568   8.1609   8.1621   8.2306   8.2308   8.3236   8.5392   8.7126
     8.7139   9.4641

          k = 0.1000-0.1000-0.3000 ( 15215 PWs)   bands (ev):

    -2.9841  -2.0815  -1.1856  -1.1836  -0.2954  -0.2952  -0.2927  -0.2902
     0.5903   0.5917   0.5926   0.5938   1.4708   1.4724   1.4760   2.3448
     2.3451   2.3466   2.3476   2.3503   3.1904   3.2087   3.2139   3.2159
     4.1042   4.7859   4.7870   4.9055   4.9075   4.9559   4.9574   5.6281
     5.6292   5.7449   5.7469   5.8130   6.4885   6.4905   6.6304   6.9695
     6.9707   7.3167   7.3189   7.3228   7.3237   7.4773   7.4790   7.7549
     7.7568   8.1609   8.1621   8.2306   8.2308   8.3236   8.5392   8.7126
     8.7139   9.4623

          k = 0.3000-0.1000 0.1000 ( 15215 PWs)   bands (ev):

    -2.9841  -2.0815  -1.1857  -1.1835  -0.2948  -0.2942  -0.2937  -0.2908
     0.5885   0.5925   0.5932   0.5941   1.4718   1.4731   1.4744   2.3442
     2.3453   2.3465   2.3488   2.3496   3.1904   3.2079   3.2144   3.2162
     4.1042   4.7862   4.7867   4.9054   4.9077   4.9564   4.9570   5.6284
     5.6289   5.7448   5.7471   5.8130   6.4884   6.4906   6.6304   6.9699
     6.9704   7.3179   7.3192   7.3216   7.3234   7.4778   7.4785   7.7554
     7.7563   8.1608   8.1621   8.2307   8.2308   8.3236   8.5392   8.7126
     8.7140   9.4626

          k =-0.3000-0.1000-0.1000 ( 15215 PWs)   bands (ev):

    -2.9841  -2.0815  -1.1861  -1.1831  -0.2958  -0.2941  -0.2933  -0.2904
     0.5885   0.5910   0.5936   0.5952   1.4719   1.4732   1.4741   2.3434
     2.3451   2.3476   2.3485   2.3498   3.1903   3.2078   3.2138   3.2169
     4.1042   4.7860   4.7869   4.9049   4.9082   4.9560   4.9573   5.6281
     5.6291   5.7443   5.7476   5.8130   6.4879   6.4910   6.6304   6.9696
     6.9706   7.3176   7.3196   7.3210   7.3238   7.4775   7.4789   7.7550
     7.7567   8.1606   8.1625   8.2307   8.2308   8.3236   8.5392   8.7123
     8.7143   9.4626

          k = 0.3000 0.1000-0.1000 ( 15215 PWs)   bands (ev):

    -2.9841  -2.0815  -1.1857  -1.1835  -0.2952  -0.2941  -0.2930  -0.2913
     0.5892   0.5921   0.5928   0.5941   1.4717   1.4731   1.4744   2.3442
     2.3457   2.3468   2.3480   2.3495   3.1904   3.2082   3.2142   3.2161
     4.1042   4.7862   4.7867   4.9054   4.9076   4.9563   4.9570   5.6284
     5.6289   5.7448   5.7470   5.8130   6.4884   6.4906   6.6304   6.9699
     6.9704   7.3180   7.3190   7.3216   7.3235   7.4778   7.4785   7.7554
     7.7563   8.1608   8.1622   8.2307   8.2308   8.3236   8.5392   8.7126
     8.7140   9.4641

          k =-0.3000 0.1000 0.1000 ( 15215 PWs)   bands (ev):

    -2.9841  -2.0815  -1.1861  -1.1831  -0.2955  -0.2947  -0.2931  -0.2902
     0.5895   0.5909   0.5927   0.5952   1.4716   1.4727   1.4749   2.3437
     2.3457   2.3472   2.3477   2.3502   3.1904   3.2083   3.2135   3.2167
     4.1042   4.7860   4.7869   4.9049   4.9081   4.9560   4.9573   5.6281
     5.6291   5.7443   5.7476   5.8130   6.4879   6.4910   6.6304   6.9696
     6.9706   7.3170   7.3197   7.3216   7.3239   7.4774   7.4789   7.7550
     7.7567   8.1605   8.1625   8.2306   8.2308   8.3236   8.5392   8.7123
     8.7143   9.4620

          k =-0.1000 0.3000 0.1000 ( 15215 PWs)   bands (ev):

    -2.9841  -2.0815  -1.1863  -1.1829  -0.2962  -0.2940  -0.2940  -0.2894
     0.5894   0.5909   0.5934   0.5946   1.4708   1.4728   1.4756   2.3431
     2.3457   2.3473   2.3484   2.3499   3.1904   3.2084   3.2134   3.2166
     4.1042   4.7864   4.7865   4.9047   4.9083   4.9566   4.9567   5.6286
     5.6286   5.7442   5.7477   5.8130   6.4878   6.4912   6.6304   6.9701
     6.9702   7.3172   7.3182   7.3222   7.3245   7.4781   7.4782   7.7558
     7.7559   8.1605   8.1625   8.2307   8.2307   8.3236   8.5392   8.7122
     8.7143   9.4632

          k =-0.1000-0.3000-0.1000 ( 15215 PWs)   bands (ev):

    -2.9841  -2.0815  -1.1866  -1.1826  -0.2964  -0.2948  -0.2934  -0.2890
     0.5889   0.5915   0.5932   0.5947   1.4708   1.4731   1.4753   2.3435
     2.3451   2.3472   2.3487   2.3499   3.1903   3.2083   3.2133   3.2169
     4.1042   4.7862   4.7867   4.9044   4.9086   4.9563   4.9570   5.6284
     5.6289   5.7438   5.7480   5.8130   6.4875   6.4915   6.6304   6.9698
     6.9704   7.3170   7.3190   7.3211   7.3251   7.4778   7.4786   7.7554
     7.7563   8.1603   8.1627   8.2307   8.2307   8.3236   8.5392   8.7121
     8.7145   9.4611

          k = 0.1000 0.3000-0.1000 ( 15215 PWs)   bands (ev):

    -2.9841  -2.0815  -1.1863  -1.1829  -0.2962  -0.2943  -0.2923  -0.2908
     0.5893   0.5914   0.5928   0.5949   1.4716   1.4729   1.4748   2.3436
     2.3457   2.3471   2.3481   2.3499   3.1904   3.2081   3.2134   3.2170
     4.1042   4.7864   4.7865   4.9047   4.9083   4.9566   4.9567   5.6286
     5.6287   5.7441   5.7477   5.8130   6.4878   6.4912   6.6304   6.9701
     6.9702   7.3174   7.3193   7.3212   7.3243   7.4781   7.4782   7.7558
     7.7559   8.1605   8.1625   8.2307   8.2307   8.3236   8.5392   8.7122
     8.7143   9.4614

          k = 0.1000-0.3000 0.1000 ( 15215 PWs)   bands (ev):

    -2.9841  -2.0815  -1.1866  -1.1826  -0.2969  -0.2942  -0.2922  -0.2902
     0.5887   0.5915   0.5929   0.5953   1.4713   1.4729   1.4750   2.3434
     2.3450   2.3471   2.3485   2.3504   3.1904   3.2081   3.2134   3.2170
     4.1042   4.7862   4.7867   4.9044   4.9086   4.9563   4.9570   5.6283
     5.6289   5.7438   5.7480   5.8130   6.4875   6.4915   6.6304   6.9698
     6.9704   7.3170   7.3194   7.3211   7.3246   7.4778   7.4786   7.7554
     7.7563   8.1603   8.1627   8.2307   8.2308   8.3236   8.5392   8.7121
     8.7145   9.4617

          k =-0.1000 0.1000 0.5000 ( 15226 PWs)   bands (ev):

    -2.6237  -2.6210  -0.8298  -0.8279  -0.8271  -0.8247   0.0590   0.0609
     0.0617   0.0641   0.9444   0.9471   1.8156   1.8170   1.8218   1.8230
     1.8245   1.8258   2.6938   2.6965   3.5537   3.5550   3.5557   3.5569
     4.4131   4.4142   4.4150   4.4163   5.1218   5.1230   5.1247   5.1258
     5.2928   5.2940   6.1457   6.1469   6.1476   6.1486   6.8158   6.8177
     6.8187   6.8210   6.9982   6.9995   7.3049   7.3062   7.3077   7.3090
     7.6547   7.6558   7.6575   7.6590   9.0698   9.0709   9.0724   9.0739
     9.3470   9.3478

          k =-0.5000-0.1000 0.1000 ( 15226 PWs)   bands (ev):

    -2.6238  -2.6209  -0.8304  -0.8277  -0.8265  -0.8249   0.0584   0.0611
     0.0623   0.0639   0.9443   0.9472   1.8158   1.8168   1.8220   1.8226
     1.8246   1.8259   2.6936   2.6966   3.5536   3.5549   3.5558   3.5571
     4.4129   4.4142   4.4151   4.4164   5.1222   5.1224   5.1248   5.1260
     5.2927   5.2941   6.1461   6.1468   6.1471   6.1489   6.8152   6.8179
     6.8193   6.8209   6.9981   6.9996   7.3052   7.3057   7.3077   7.3092
     7.6542   7.6560   7.6579   7.6590   9.0693   9.0711   9.0728   9.0739
     9.3463   9.3475

          k = 0.5000-0.1000-0.1000 ( 15226 PWs)   bands (ev):

    -2.6238  -2.6209  -0.8307  -0.8274  -0.8269  -0.8246   0.0581   0.0615
     0.0619   0.0642   0.9443   0.9472   1.8159   1.8167   1.8215   1.8230
     1.8249   1.8257   2.6936   2.6966   3.5530   3.5545   3.5564   3.5575
     4.4123   4.4138   4.4157   4.4168   5.1218   5.1228   5.1249   5.1258
     5.2927   5.2941   6.1458   6.1470   6.1475   6.1486   6.8150   6.8183
     6.8187   6.8212   6.9981   6.9996   7.3048   7.3060   7.3079   7.3090
     7.6544   7.6559   7.6571   7.6597   9.0695   9.0709   9.0721   9.0747
     9.3464   9.3476

          k =-0.1000-0.5000 0.1000 ( 15226 PWs)   bands (ev):

    -2.6227  -2.6220  -0.8294  -0.8289  -0.8265  -0.8247   0.0594   0.0599
     0.0624   0.0641   0.9454   0.9461   1.8160   1.8167   1.8232   1.8233
     1.8240   1.8245   2.6948   2.6955   3.5535   3.5537   3.5568   3.5574
     4.4128   4.4130   4.4161   4.4167   5.1234   5.1235   5.1242   5.1242
     5.2932   5.2936   6.1469   6.1470   6.1474   6.1475   6.8163   6.8167
     6.8192   6.8210   6.9986   6.9990   7.3065   7.3066   7.3073   7.3074
     7.6550   7.6563   7.6575   7.6581   9.0700   9.0713   9.0725   9.0731
     9.3469   9.3470

          k =-0.1000 0.5000-0.1000 ( 15226 PWs)   bands (ev):

    -2.6227  -2.6220  -0.8297  -0.8291  -0.8259  -0.8248   0.0591   0.0597
     0.0629   0.0640   0.9454   0.9461   1.8159   1.8165   1.8232   1.8236
     1.8238   1.8247   2.6948   2.6955   3.5531   3.5535   3.5572   3.5576
     4.4124   4.4128   4.4165   4.4169   5.1234   5.1235   5.1237   5.1247
     5.2932   5.2936   6.1466   6.1470   6.1471   6.1482   6.8160   6.8166
     6.8197   6.8209   6.9986   6.9990   7.3065   7.3066   7.3068   7.3079
     7.6553   7.6559   7.6574   7.6584   9.0703   9.0709   9.0724   9.0734
     9.3469   9.3476

          k =-0.1000-0.3000 0.3000 ( 15228 PWs)   bands (ev):

    -2.8031  -1.9027  -1.9006  -1.0065  -1.0052  -0.1185  -0.1151  -0.1135
     0.7657   0.7667   0.7675   0.7704   0.7718   1.6458   1.6469   1.6490
     2.5192   2.5214   3.3627   3.3634   3.3792   3.3796   3.3863   3.3886
     4.2222   4.2244   4.2473   4.2771   4.2776   4.9551   5.0655   5.0661
     5.7901   5.7925   5.9496   5.9517   5.9596   5.9604   5.9821   6.6505
     6.7653   6.7668   6.7982   6.8005   6.8349   7.1356   8.0665   8.0680
     8.3131   8.3156   8.4892   8.4903   8.7021   8.7029   8.9096   9.1657
     9.1667   9.3235

          k =-0.1000 0.3000-0.3000 ( 15228 PWs)   bands (ev):

    -2.8031  -1.9027  -1.9006  -1.0060  -1.0057  -0.1181  -0.1151  -0.1138
     0.7659   0.7667   0.7682   0.7696   0.7715   1.6458   1.6469   1.6491
     2.5192   2.5214   3.3628   3.3634   3.3791   3.3799   3.3862   3.3884
     4.2222   4.2244   4.2473   4.2771   4.2777   4.9551   5.0655   5.0661
     5.7901   5.7925   5.9496   5.9519   5.9596   5.9602   5.9821   6.6505
     6.7653   6.7668   6.7982   6.8005   6.8349   7.1356   8.0665   8.0680
     8.3131   8.3156   8.4892   8.4903   8.7021   8.7029   8.9096   9.1657
     9.1667   9.3235

          k = 0.1000-0.3000-0.3000 ( 15228 PWs)   bands (ev):

    -2.8031  -1.9032  -1.9001  -1.0069  -1.0048  -0.1186  -0.1157  -0.1127
     0.7653   0.7658   0.7680   0.7707   0.7723   1.6458   1.6471   1.6488
     2.5187   2.5219   3.3624   3.3636   3.3788   3.3800   3.3860   3.3890
     4.2217   4.2249   4.2474   4.2768   4.2780   4.9551   5.0652   5.0663
     5.7896   5.7930   5.9490   5.9522   5.9594   5.9607   5.9821   6.6505
     6.7650   6.7671   6.7977   6.8010   6.8349   7.1356   8.0662   8.0684
     8.3126   8.3162   8.4889   8.4906   8.7018   8.7032   8.9096   9.1653
     9.1672   9.3235

          k = 0.3000 0.1000-0.3000 ( 15228 PWs)   bands (ev):

    -2.8031  -1.9033  -1.9000  -1.0066  -1.0051  -0.1179  -0.1156  -0.1136
     0.7646   0.7670   0.7678   0.7704   0.7723   1.6450   1.6466   1.6501
     2.5186   2.5220   3.3630   3.3631   3.3795   3.3798   3.3856   3.3888
     4.2216   4.2250   4.2472   4.2773   4.2776   4.9551   5.0657   5.0658
     5.7894   5.7931   5.9491   5.9526   5.9597   5.9599   5.9821   6.6505
     6.7649   6.7671   6.7977   6.8012   6.8349   7.1356   8.0661   8.0685
     8.3124   8.3163   8.4889   8.4907   8.7024   8.7025   8.9096   9.1661
     9.1663   9.3235

          k =-0.3000-0.1000-0.3000 ( 15228 PWs)   bands (ev):

    -2.8031  -1.9036  -1.8997  -1.0065  -1.0052  -0.1187  -0.1152  -0.1132
     0.7644   0.7662   0.7689   0.7702   0.7724   1.6455   1.6467   1.6496
     2.5183   2.5223   3.3627   3.3633   3.3790   3.3799   3.3854   3.3894
     4.2213   4.2253   4.2473   4.2771   4.2778   4.9551   5.0655   5.0661
     5.7891   5.7935   5.9488   5.9527   5.9595   5.9603   5.9821   6.6505
     6.7647   6.7673   6.7973   6.8015   6.8349   7.1356   8.0658   8.0688
     8.3121   8.3166   8.4887   8.4908   8.7021   8.7029   8.9096   9.1657
     9.1667   9.3235

          k = 0.3000-0.1000 0.3000 ( 15228 PWs)   bands (ev):

    -2.8031  -1.9036  -1.8997  -1.0069  -1.0048  -0.1184  -0.1152  -0.1135
     0.7648   0.7664   0.7679   0.7703   0.7727   1.6450   1.6469   1.6499
     2.5183   2.5223   3.3627   3.3633   3.3793   3.3799   3.3853   3.3892
     4.2213   4.2253   4.2472   4.2772   4.2777   4.9551   5.0655   5.0661
     5.7891   5.7935   5.9488   5.9529   5.9595   5.9601   5.9821   6.6506
     6.7647   6.7673   6.7974   6.8015   6.8349   7.1356   8.0658   8.0688
     8.3121   8.3167   8.4887   8.4908   8.7021   8.7029   8.9096   9.1657
     9.1667   9.3235

          k =-0.3000 0.1000 0.3000 ( 15228 PWs)   bands (ev):

    -2.8031  -1.9033  -1.9000  -1.0060  -1.0057  -0.1181  -0.1162  -0.1128
     0.7649   0.7670   0.7686   0.7693   0.7722   1.6457   1.6466   1.6494
     2.5186   2.5220   3.3631   3.3631   3.3792   3.3796   3.3857   3.3891
     4.2216   4.2250   4.2473   4.2773   4.2775   4.9551   5.0657   5.0658
     5.7894   5.7932   5.9490   5.9524   5.9597   5.9602   5.9821   6.6506
     6.7649   6.7671   6.7976   6.8011   6.8349   7.1356   8.0660   8.0685
     8.3124   8.3163   8.4889   8.4907   8.7024   8.7025   8.9096   9.1661
     9.1663   9.3235

          k = 0.3000-0.3000 0.1000 ( 15228 PWs)   bands (ev):

    -2.8031  -1.9026  -1.9007  -1.0066  -1.0051  -0.1168  -0.1157  -0.1145
     0.7657   0.7662   0.7689   0.7697   0.7716   1.6450   1.6463   1.6505
     2.5193   2.5213   3.3624   3.3637   3.3791   3.3804   3.3861   3.3881
     4.2223   4.2243   4.2472   4.2767   4.2782   4.9550   5.0651   5.0665
     5.7902   5.7923   5.9499   5.9519   5.9590   5.9604   5.9821   6.6505
     6.7653   6.7667   6.7984   6.8004   6.8349   7.1356   8.0666   8.0680
     8.3132   8.3155   8.4892   8.4903   8.7017   8.7033   8.9096   9.1651
     9.1673   9.3235

          k =-0.3000-0.3000-0.1000 ( 15228 PWs)   bands (ev):

    -2.8031  -1.9022  -1.9011  -1.0060  -1.0057  -0.1173  -0.1159  -0.1138
     0.7660   0.7663   0.7683   0.7697   0.7717   1.6452   1.6467   1.6499
     2.5197   2.5209   3.3627   3.3634   3.3792   3.3799   3.3867   3.3878
     4.2227   4.2239   4.2473   4.2771   4.2778   4.9551   5.0654   5.0661
     5.7907   5.7919   5.9503   5.9514   5.9595   5.9602   5.9821   6.6505
     6.7656   6.7664   6.7988   6.8000   6.8349   7.1356   8.0669   8.0677
     8.3137   8.3150   8.4895   8.4900   8.7021   8.7029   8.9096   9.1657
     9.1668   9.3235

          k = 0.3000 0.3000-0.1000 ( 15228 PWs)   bands (ev):

    -2.8031  -1.9022  -1.9011  -1.0069  -1.0048  -0.1170  -0.1155  -0.1145
     0.7658   0.7664   0.7683   0.7696   0.7720   1.6452   1.6469   1.6497
     2.5197   2.5208   3.3627   3.3633   3.3794   3.3800   3.3866   3.3878
     4.2227   4.2239   4.2473   4.2771   4.2778   4.9551   5.0654   5.0661
     5.7907   5.7919   5.9503   5.9514   5.9594   5.9601   5.9821   6.6505
     6.7656   6.7664   6.7988   6.8000   6.8349   7.1356   8.0669   8.0677
     8.3137   8.3150   8.4895   8.4901   8.7021   8.7029   8.9096   9.1657
     9.1668   9.3235

          k =-0.3000 0.3000 0.1000 ( 15228 PWs)   bands (ev):

    -2.8031  -1.9026  -1.9007  -1.0065  -1.0052  -0.1173  -0.1164  -0.1133
     0.7652   0.7673   0.7686   0.7691   0.7719   1.6455   1.6471   1.6491
     2.5193   2.5213   3.3623   3.3637   3.3788   3.3802   3.3863   3.3884
     4.2223   4.2243   4.2473   4.2767   4.2781   4.9551   5.0651   5.0664
     5.7902   5.7924   5.9498   5.9517   5.9592   5.9606   5.9821   6.6505
     6.7654   6.7667   6.7983   6.8004   6.8349   7.1356   8.0666   8.0680
     8.3133   8.3155   8.4892   8.4903   8.7017   8.7033   8.9096   9.1651
     9.1673   9.3235

          k =-0.1000 0.3000 0.5000 ( 15214 PWs)   bands (ev):

    -2.4432  -2.4405  -1.5440  -1.5413  -0.6504  -0.6477   0.2355   0.2386
     0.2396   0.2419   1.1179   1.1197   1.1215   1.1232   1.9909   1.9922
     2.8620   2.8628   2.8666   2.8690   3.7064   3.7092   3.7221   3.7248
     3.7264   3.7275   4.5742   4.5753   4.6167   4.6179   5.2902   5.2931
     5.4259   5.4270   5.4503   5.4529   5.4637   5.4649   6.1538   6.1565
     6.2887   6.2915   7.1658   7.1672   7.4109   7.4132   8.0137   8.0150
     8.0774   8.0785   8.3969   8.3996   8.6590   8.6619   8.9967   8.9993
     9.5435   9.5451

          k = 0.3000 0.1000 0.5000 ( 15214 PWs)   bands (ev):

    -2.4432  -2.4405  -1.5440  -1.5413  -0.6505  -0.6477   0.2366   0.2378
     0.2400   0.2411   1.1170   1.1201   1.1214   1.1238   1.9909   1.9922
     2.8620   2.8633   2.8662   2.8689   3.7065   3.7092   3.7218   3.7247
     3.7264   3.7278   4.5743   4.5754   4.6166   4.6178   5.2902   5.2930
     5.4258   5.4270   5.4503   5.4529   5.4638   5.4651   6.1538   6.1565
     6.2887   6.2915   7.1658   7.1672   7.4109   7.4132   8.0137   8.0151
     8.0774   8.0785   8.3969   8.3996   8.6590   8.6619   8.9967   8.9993
     9.5435   9.5451

          k = 0.3000-0.1000-0.5000 ( 15214 PWs)   bands (ev):

    -2.4432  -2.4405  -1.5440  -1.5413  -0.6505  -0.6477   0.2357   0.2387
     0.2402   0.2410   1.1168   1.1199   1.1220   1.1236   1.9909   1.9922
     2.8618   2.8629   2.8664   2.8692   3.7064   3.7092   3.7219   3.7244
     3.7268   3.7278   4.5742   4.5753   4.6166   4.6179   5.2902   5.2930
     5.4259   5.4270   5.4502   5.4529   5.4638   5.4651   6.1538   6.1565
     6.2887   6.2914   7.1658   7.1671   7.4109   7.4132   8.0137   8.0150
     8.0774   8.0785   8.3969   8.3996   8.6590   8.6619   8.9967   8.9993
     9.5435   9.5451

          k =-0.5000-0.3000 0.1000 ( 15214 PWs)   bands (ev):

    -2.4433  -2.4404  -1.5441  -1.5412  -0.6506  -0.6476   0.2369   0.2379
     0.2398   0.2409   1.1167   1.1196   1.1216   1.1243   1.9909   1.9922
     2.8616   2.8631   2.8663   2.8693   3.7063   3.7093   3.7220   3.7249
     3.7264   3.7277   4.5742   4.5754   4.6165   4.6179   5.2901   5.2932
     5.4258   5.4270   5.4502   5.4531   5.4637   5.4651   6.1536   6.1566
     6.2885   6.2916   7.1658   7.1672   7.4108   7.4133   8.0136   8.0151
     8.0773   8.0785   8.3968   8.3997   8.6589   8.6621   8.9966   8.9994
     9.5434   9.5452

          k = 0.5000-0.3000-0.1000 ( 15214 PWs)   bands (ev):

    -2.4433  -2.4404  -1.5441  -1.5412  -0.6506  -0.6476   0.2364   0.2378
     0.2387   0.2427   1.1178   1.1198   1.1210   1.1238   1.9909   1.9922
     2.8619   2.8632   2.8662   2.8691   3.7063   3.7094   3.7219   3.7247
     3.7263   3.7279   4.5742   4.5753   4.6166   4.6180   5.2901   5.2932
     5.4259   5.4270   5.4502   5.4530   5.4636   5.4651   6.1536   6.1566
     6.2885   6.2916   7.1658   7.1672   7.4108   7.4133   8.0136   8.0151
     8.0773   8.0785   8.3968   8.3997   8.6589   8.6620   8.9966   8.9994
     9.5434   9.5452

          k =-0.1000-0.5000 0.3000 ( 15214 PWs)   bands (ev):

    -2.4422  -2.4415  -1.5430  -1.5423  -0.6494  -0.6487   0.2365   0.2375
     0.2398   0.2418   1.1190   1.1194   1.1213   1.1226   1.9914   1.9917
     2.8622   2.8626   2.8675   2.8680   3.7074   3.7082   3.7228   3.7237
     3.7268   3.7276   4.5746   4.5749   4.6171   4.6175   5.2913   5.2920
     5.4263   5.4266   5.4512   5.4519   5.4641   5.4646   6.1548   6.1555
     6.2897   6.2904   7.1663   7.1667   7.4117   7.4123   8.0142   8.0145
     8.0778   8.0781   8.3979   8.3986   8.6601   8.6608   8.9977   8.9984
     9.5441   9.5446

          k =-0.1000 0.5000-0.3000 ( 15214 PWs)   bands (ev):

    -2.4422  -2.4415  -1.5430  -1.5423  -0.6494  -0.6487   0.2375   0.2383
     0.2395   0.2402   1.1186   1.1197   1.1218   1.1222   1.9914   1.9917
     2.8624   2.8628   2.8672   2.8679   3.7075   3.7082   3.7231   3.7236
     3.7269   3.7272   4.5747   4.5749   4.6171   4.6174   5.2913   5.2920
     5.4263   5.4266   5.4512   5.4519   5.4641   5.4645   6.1548   6.1555
     6.2897   6.2904   7.1663   7.1667   7.4117   7.4123   8.0142   8.0146
     8.0778   8.0781   8.3979   8.3986   8.6601   8.6609   8.9977   8.9983
     9.5441   9.5446

          k = 0.3000-0.5000 0.1000 ( 15214 PWs)   bands (ev):

    -2.4422  -2.4415  -1.5430  -1.5423  -0.6494  -0.6487   0.2376   0.2381
     0.2392   0.2407   1.1180   1.1189   1.1217   1.1236   1.9914   1.9917
     2.8622   2.8627   2.8673   2.8681   3.7074   3.7082   3.7227   3.7238
     3.7269   3.7275   4.5746   4.5749   4.6170   4.6174   5.2912   5.2920
     5.4263   5.4266   5.4512   5.4520   5.4642   5.4646   6.1548   6.1555
     6.2897   6.2904   7.1663   7.1667   7.4117   7.4123   8.0142   8.0146
     8.0778   8.0781   8.3979   8.3986   8.6601   8.6609   8.9977   8.9983
     9.5441   9.5446

          k = 0.3000 0.5000-0.1000 ( 15214 PWs)   bands (ev):

    -2.4422  -2.4415  -1.5430  -1.5423  -0.6494  -0.6487   0.2371   0.2384
     0.2398   0.2402   1.1189   1.1197   1.1215   1.1222   1.9914   1.9917
     2.8623   2.8627   2.8672   2.8680   3.7075   3.7082   3.7231   3.7238
     3.7268   3.7271   4.5746   4.5749   4.6171   4.6174   5.2913   5.2920
     5.4263   5.4266   5.4513   5.4520   5.4641   5.4645   6.1548   6.1555
     6.2897   6.2904   7.1663   7.1667   7.4117   7.4124   8.0142   8.0146
     8.0778   8.0781   8.3979   8.3986   8.6601   8.6609   8.9977   8.9983
     9.5441   9.5446

          k =-0.5000 0.1000 0.3000 ( 15214 PWs)   bands (ev):

    -2.4433  -2.4404  -1.5441  -1.5412  -0.6506  -0.6476   0.2352   0.2381
     0.2398   0.2425   1.1181   1.1200   1.1211   1.1231   1.9909   1.9922
     2.8619   2.8632   2.8661   2.8690   3.7064   3.7094   3.7217   3.7244
     3.7265   3.7280   4.5741   4.5753   4.6166   4.6180   5.2901   5.2932
     5.4259   5.4271   5.4501   5.4529   5.4637   5.4651   6.1537   6.1566
     6.2886   6.2916   7.1657   7.1672   7.4108   7.4133   8.0136   8.0151
     8.0773   8.0785   8.3968   8.3997   8.6589   8.6620   8.9966   8.9994
     9.5435   9.5452

          k = 0.5000-0.1000 0.3000 ( 15214 PWs)   bands (ev):

    -2.4433  -2.4404  -1.5441  -1.5412  -0.6506  -0.6476   0.2364   0.2380
     0.2393   0.2418   1.1178   1.1194   1.1206   1.1245   1.9909   1.9922
     2.8619   2.8630   2.8662   2.8691   3.7063   3.7093   3.7219   3.7249
     3.7263   3.7277   4.5742   4.5754   4.6166   4.6179   5.2901   5.2932
     5.4258   5.4270   5.4502   5.4530   5.4637   5.4651   6.1537   6.1566
     6.2886   6.2916   7.1658   7.1672   7.4108   7.4133   8.0136   8.0151
     8.0773   8.0785   8.3968   8.3997   8.6589   8.6621   8.9966   8.9994
     9.5435   9.5452

          k =-0.5000 0.1000 0.5000 ( 15200 PWs)   bands (ev):

    -2.0853  -2.0824  -2.0804  -2.0779  -0.2970  -0.2940  -0.2920  -0.2896
     0.5886   0.5915   0.5936   0.5960   2.3363   2.3370   2.3386   2.3408
     2.3417   2.3421   2.3433   2.3453   4.0569   4.0576   4.0592   4.0615
     4.0625   4.0626   4.0640   4.0659   4.9569   4.9578   4.9591   4.9615
     4.9623   4.9630   4.9640   4.9661   5.6187   5.6218   5.6241   5.6267
     6.6119   6.6131   6.6147   6.6156   7.9036   7.9062   7.9075   7.9098
     8.3412   8.3427   8.3438   8.3451   9.1846   9.1861   9.1872   9.1885
     9.8179   9.8194

          k =-0.5000 0.5000 0.1000 ( 15200 PWs)   bands (ev):

    -2.0837  -2.0825  -2.0800  -2.0797  -0.2954  -0.2942  -0.2916  -0.2914
     0.5902   0.5914   0.5940   0.5942   2.3368   2.3382   2.3388   2.3402
     2.3409   2.3426   2.3435   2.3441   4.0574   4.0589   4.0593   4.0610
     4.0615   4.0631   4.0643   4.0648   4.9577   4.9588   4.9597   4.9608
     4.9617   4.9634   4.9639   4.9647   5.6204   5.6217   5.6245   5.6247
     6.6128   6.6134   6.6145   6.6147   7.9049   7.9059   7.9081   7.9083
     8.3420   8.3427   8.3440   8.3441   9.1854   9.1861   9.1874   9.1875
     9.8178   9.8194

          k =-0.3000-0.3000 0.3000 ( 15225 PWs)   bands (ev):

    -2.6224  -1.7240  -1.7222  -1.7199  -0.8293  -0.8275  -0.8251   0.0620
     0.9417   0.9434   0.9458   1.8179   1.8207   1.8211   1.8223   1.8237
     1.8253   2.6934   2.6938   2.6943   3.5351   3.5356   3.5360   4.3893
     4.3923   4.3927   4.3939   4.3953   4.3969   4.4061   4.4079   4.4103
     5.2789   5.2807   5.2831   5.2976   5.2981   5.2986   6.9573   6.9586
     6.9594   6.9602   6.9611   6.9621   7.8105   7.8117   7.8125   7.8133
     7.8140   7.8152   7.8517   8.8270   8.8277   8.8284   9.5314   9.5318
     9.5321   9.7457

          k =-0.3000 0.3000-0.3000 ( 15225 PWs)   bands (ev):

    -2.6224  -1.7245  -1.7221  -1.7196  -0.8297  -0.8273  -0.8248   0.0620
     0.9412   0.9436   0.9461   1.8189   1.8195   1.8207   1.8218   1.8243
     1.8259   2.6930   2.6938   2.6947   3.5347   3.5355   3.5364   4.3904
     4.3910   4.3922   4.3934   4.3959   4.3975   4.4056   4.4081   4.4106
     5.2784   5.2809   5.2834   5.2972   5.2981   5.2990   6.9573   6.9581
     6.9588   6.9607   6.9615   6.9623   7.8104   7.8112   7.8119   7.8138
     7.8145   7.8153   7.8517   8.8265   8.8277   8.8289   9.5312   9.5318
     9.5323   9.7446

          k = 0.3000-0.3000-0.3000 ( 15225 PWs)   bands (ev):

    -2.6224  -1.7242  -1.7226  -1.7193  -0.8294  -0.8279  -0.8246   0.0620
     0.9415   0.9430   0.9464   1.8187   1.8197   1.8212   1.8222   1.8236
     1.8259   2.6929   2.6938   2.6948   3.5347   3.5356   3.5365   4.3901
     4.3912   4.3927   4.3938   4.3951   4.3975   4.4059   4.4075   4.4109
     5.2787   5.2803   5.2837   5.2971   5.2981   5.2991   6.9570   6.9583
     6.9589   6.9607   6.9611   6.9627   7.8100   7.8115   7.8120   7.8138
     7.8142   7.8156   7.8517   8.8264   8.8277   8.8291   9.5311   9.5318
     9.5324   9.7438

          k =-0.3000 0.3000 0.5000 ( 15196 PWs)   bands (ev):

    -2.2629  -2.2602  -1.3659  -1.3640  -1.3632  -1.3609  -0.4723  -0.4696
     1.2931   1.2950   1.2959   1.2982   2.1650   2.1664   2.1700   2.1710
     2.1725   2.1738   3.0344   3.0357   3.0364   3.0376   3.8774   3.8790
     3.8803   3.8816   3.8894   3.8905   4.7222   4.7242   4.7250   4.7273
     4.7926   4.7952   5.6407   5.6420   5.6428   5.6440   6.4838   6.4851
     6.4857   6.4868   7.3010   7.3020   7.3037   7.3051   8.1099   8.1112
     8.1119   8.1131   8.9820   8.9835   8.9841   8.9855   9.0244   9.0258
     9.2689   9.2711

          k =-0.5000-0.3000 0.3000 ( 15196 PWs)   bands (ev):

    -2.2630  -2.2601  -1.3665  -1.3638  -1.3626  -1.3610  -0.4724  -0.4695
     1.2925   1.2952   1.2964   1.2981   2.1652   2.1662   2.1701   2.1706
     2.1727   2.1739   3.0343   3.0356   3.0365   3.0378   3.8779   3.8783
     3.8803   3.8819   3.8892   3.8906   4.7216   4.7244   4.7255   4.7272
     4.7925   4.7953   5.6406   5.6419   5.6428   5.6442   6.4842   6.4849
     6.4852   6.4870   7.3005   7.3021   7.3041   7.3051   8.1107   8.1110
     8.1114   8.1130   8.9818   8.9834   8.9841   8.9857   9.0243   9.0258
     9.2700   9.2710

          k = 0.5000-0.3000-0.3000 ( 15196 PWs)   bands (ev):

    -2.2630  -2.2601  -1.3668  -1.3635  -1.3630  -1.3607  -0.4724  -0.4695
     1.2922   1.2956   1.2961   1.2984   2.1654   2.1660   2.1695   2.1711
     2.1730   2.1737   3.0337   3.0352   3.0370   3.0382   3.8775   3.8786
     3.8804   3.8817   3.8892   3.8907   4.7213   4.7247   4.7251   4.7275
     4.7925   4.7954   5.6400   5.6414   5.6434   5.6446   6.4839   6.4851
     6.4857   6.4867   7.3007   7.3019   7.3033   7.3058   8.1100   8.1113
     8.1118   8.1130   8.9812   8.9830   8.9847   8.9861   9.0243   9.0259
     9.2688   9.2711

          k =-0.3000-0.5000 0.3000 ( 15196 PWs)   bands (ev):

    -2.2619  -2.2612  -1.3655  -1.3650  -1.3626  -1.3608  -0.4713  -0.4706
     1.2935   1.2940   1.2965   1.2983   2.1654   2.1661   2.1712   2.1714
     2.1720   2.1726   3.0342   3.0344   3.0375   3.0381   3.8793   3.8793
     3.8797   3.8801   3.8898   3.8901   4.7226   4.7231   4.7256   4.7274
     4.7936   4.7943   5.6404   5.6407   5.6439   5.6444   6.4850   6.4851
     6.4855   6.4856   7.3013   7.3026   7.3037   7.3042   8.1113   8.1114
     8.1117   8.1118   8.9819   8.9820   8.9852   8.9860   9.0249   9.0253
     9.2705   9.2707

          k =-0.3000 0.5000-0.3000 ( 15196 PWs)   bands (ev):

    -2.2619  -2.2612  -1.3658  -1.3652  -1.3620  -1.3609  -0.4713  -0.4706
     1.2932   1.2938   1.2971   1.2982   2.1653   2.1659   2.1712   2.1716
     2.1719   2.1727   3.0338   3.0342   3.0379   3.0383   3.8790   3.8792
     3.8794   3.8806   3.8899   3.8901   4.7223   4.7229   4.7262   4.7273
     4.7936   4.7943   5.6401   5.6404   5.6443   5.6446   6.4847   6.4851
     6.4852   6.4863   7.3016   7.3022   7.3035   7.3045   8.1110   8.1112
     8.1115   8.1124   8.9814   8.9818   8.9857   8.9861   9.0249   9.0253
     9.2703   9.2710

          k =-0.5000 0.3000 0.5000 ( 15212 PWs)   bands (ev):

    -1.9055  -1.9025  -1.9005  -1.8981  -1.0096  -1.0067  -1.0047  -1.0022
     1.6428   1.6458   1.6478   1.6503   2.5105   2.5112   2.5128   2.5150
     2.5159   2.5163   2.5175   2.5196   3.3771   3.3777   3.3793   3.3816
     3.3826   3.3828   3.3841   3.3861   4.2179   4.2210   4.2231   4.2256
     5.9697   5.9705   5.9720   5.9744   5.9752   5.9757   5.9769   5.9790
     6.8080   6.8094   6.8105   6.8117   7.6631   7.6646   7.6657   7.6669
     8.4679   8.4687   8.4703   8.4729   8.4738   8.4743   8.4755   8.4779
     9.5922   9.5946

          k =-0.5000 0.5000 0.3000 ( 15212 PWs)   bands (ev):

    -1.9039  -1.9027  -1.9001  -1.8999  -1.0080  -1.0068  -1.0043  -1.0040
     1.6444   1.6456   1.6482   1.6484   2.5110   2.5124   2.5130   2.5144
     2.5151   2.5168   2.5177   2.5183   3.3776   3.3789   3.3795   3.3810
     3.3817   3.3834   3.3843   3.3849   4.2196   4.2208   4.2235   4.2237
     5.9703   5.9716   5.9723   5.9737   5.9745   5.9762   5.9770   5.9777
     6.8088   6.8094   6.8107   6.8108   7.6639   7.6646   7.6659   7.6660
     8.4684   8.4699   8.4706   8.4722   8.4729   8.4750   8.4758   8.4765
     9.5914   9.5941

     the Fermi energy is     7.9689 ev

!    total energy              =   -1264.09403799 Ry
     Harris-Foulkes estimate   =   -1264.09403750 Ry
     estimated scf accuracy    <       0.00000081 Ry

     total all-electron energy =    -15540.663060 Ry

     The total energy is the sum of the following terms:

     one-electron contribution =     101.23258430 Ry
     hartree contribution      =       0.19445159 Ry
     xc contribution           =     -82.91016025 Ry
     ewald contribution        =    -172.93188273 Ry
     one-center paw contrib.   =   -1109.67452954 Ry
     smearing contrib. (-TS)   =      -0.00450136 Ry

     convergence has been achieved in   8 iterations

     Forces acting on atoms (cartesian axes, Ry/au):

     atom    1 type  1   force =    -0.00004697   -0.00000372    0.00001441
     atom    2 type  1   force =    -0.00010734    0.00023179    0.00006826
     atom    3 type  1   force =     0.00023564    0.00000655   -0.00051604
     atom    4 type  1   force =     0.00000964   -0.00022608   -0.00035985
     atom    5 type  1   force =    -0.00045217   -0.00035873    0.00033281
     atom    6 type  1   force =    -0.00019536    0.00038648   -0.00003736
     atom    7 type  1   force =    -0.00019414   -0.00052275    0.00033716
     atom    8 type  1   force =    -0.00002209   -0.00005990   -0.00028536
     atom    9 type  1   force =    -0.00003543   -0.00002072    0.00008722
     atom   10 type  1   force =    -0.00020888   -0.00011243   -0.00069414
     atom   11 type  1   force =    -0.00028605   -0.00029072   -0.00037823
     atom   12 type  1   force =    -0.00017720   -0.00000577   -0.00004326
     atom   13 type  1   force =    -0.00015108   -0.00033254   -0.00004906
     atom   14 type  1   force =    -0.00004319    0.00013365    0.00045451
     atom   15 type  1   force =    -0.00053054    0.00038068    0.00054138
     atom   16 type  1   force =     0.00066032    0.00051336    0.00019154
     atom   17 type  1   force =    -0.00036903    0.00008371    0.00004961
     atom   18 type  1   force =     0.00020951   -0.00011942    0.00038894
     atom   19 type  1   force =     0.00059232    0.00022222   -0.00011654
     atom   20 type  1   force =     0.00007508    0.00021557    0.00006629
     atom   21 type  1   force =     0.00017631   -0.00056661    0.00010801
     atom   22 type  1   force =    -0.00007468    0.00061224    0.00021066
     atom   23 type  1   force =     0.00013143   -0.00007043   -0.00013318
     atom   24 type  1   force =     0.00013242    0.00009565   -0.00000748
     atom   25 type  1   force =     0.00009087   -0.00016605    0.00030810
     atom   26 type  1   force =     0.00033932   -0.00024999   -0.00026018
     atom   27 type  1   force =    -0.00016490    0.00011300    0.00009060
     atom   28 type  1   force =    -0.00009723    0.00025150   -0.00010659
     atom   29 type  1   force =     0.00085828   -0.00033739   -0.00009586
     atom   30 type  1   force =    -0.00023757    0.00004612    0.00020052
     atom   31 type  1   force =    -0.00004425   -0.00010258   -0.00034018
     atom   32 type  1   force =    -0.00007304    0.00025332   -0.00002670

     Total force =     0.002788     Total SCF correction =     0.000419
     SCF correction compared to forces is large: reduce conv_thr to get better values


     Computing stress (Cartesian axis) and pressure

          total   stress  (Ry/bohr**3)                   (kbar)     P=   -1.97
  -0.00001336  -0.00000000   0.00000000         -1.97     -0.00      0.00
  -0.00000000  -0.00001337   0.00000000         -0.00     -1.97      0.00
   0.00000000   0.00000000  -0.00001336          0.00      0.00     -1.97


     Writing output data file fe_scf_fcc_2.save/
 
     init_run     :      8.56s CPU      8.92s WALL (       1 calls)
     electrons    :    110.04s CPU    114.23s WALL (       1 calls)
     forces       :      1.44s CPU      1.51s WALL (       1 calls)
     stress       :      5.76s CPU      5.82s WALL (       1 calls)

     Called by init_run:
     wfcinit      :      8.42s CPU      8.73s WALL (       1 calls)
     potinit      :      0.08s CPU      0.09s WALL (       1 calls)
     hinit0       :      0.03s CPU      0.07s WALL (       1 calls)

     Called by electrons:
     c_bands      :     96.97s CPU    100.30s WALL (       9 calls)
     sum_band     :     12.39s CPU     12.99s WALL (       9 calls)
     v_of_rho     :      0.09s CPU      0.09s WALL (       9 calls)
     newd         :      0.06s CPU      0.08s WALL (       9 calls)
     PAW_pot      :      0.57s CPU      0.58s WALL (       9 calls)
     mix_rho      :      0.02s CPU      0.02s WALL (       9 calls)

     Called by c_bands:
     init_us_2    :      2.01s CPU      2.07s WALL (    1323 calls)
     cegterg      :     92.02s CPU     95.13s WALL (     567 calls)

     Called by sum_band:
     sum_band:bec :      0.07s CPU      0.07s WALL (     567 calls)
     addusdens    :      0.05s CPU      0.07s WALL (       9 calls)

     Called by *egterg:
     h_psi        :     67.87s CPU     70.42s WALL (    2078 calls)
     s_psi        :      5.43s CPU      5.49s WALL (    2078 calls)
     g_psi        :      0.32s CPU      0.32s WALL (    1448 calls)
     cdiaghg      :     12.05s CPU     12.25s WALL (    1952 calls)

     Called by h_psi:
     h_psi:pot    :     67.61s CPU     70.15s WALL (    2078 calls)
     h_psi:calbec :      7.09s CPU      7.59s WALL (    2078 calls)
     vloc_psi     :     55.13s CPU     57.09s WALL (    2078 calls)
     add_vuspsi   :      5.38s CPU      5.45s WALL (    2078 calls)

     General routines
     calbec       :     10.39s CPU     11.14s WALL (    2960 calls)
     fft          :      0.08s CPU      0.12s WALL (     126 calls)
     ffts         :      0.01s CPU      0.01s WALL (       9 calls)
     fftw         :     59.51s CPU     61.64s WALL (  223928 calls)
 
     Parallel routines
     fft_scatt_xy :      8.34s CPU      8.65s WALL (  224063 calls)
     fft_scatt_yz :     34.76s CPU     36.01s WALL (  224063 calls)
 
     PWSCF        :  2m11.41s CPU     2m18.41s WALL

 
   This run was terminated on:   8: 5:47   9Mar2020            

=------------------------------------------------------------------------------=
   JOB DONE.
=------------------------------------------------------------------------------=
