
     Program PWSCF v.6.3 starts on  9Mar2020 at  7:55:35 

     This program is part of the open-source Quantum ESPRESSO suite
     for quantum simulation of materials; please cite
         "P. Giannozzi et al., J. Phys.:Condens. Matter 21 395502 (2009);
         "P. Giannozzi et al., J. Phys.:Condens. Matter 29 465901 (2017);
          URL http://www.quantum-espresso.org", 
     in publications or presentations arising from this work. More details at
     http://www.quantum-espresso.org/quote

     Parallel version (MPI & OpenMP), running on      20 processor cores
     Number of MPI processes:                20
     Threads/MPI process:                     1

     MPI processes distributed on     1 nodes
     R & G space division:  proc/nbgrp/npool/nimage =      20
     Reading input from wd/kpoints/file_000105.in
Warning: card &IONS ignored
Warning: card ION_DYNAMICS = 'BFGS', ignored
Warning: card / ignored
Warning: card &CELL ignored
Warning: card CELL_DYNAMICS = 'BFGS', ignored
Warning: card CELL_FACTOR = 2.0, ignored
Warning: card PRESS = 0.0, ignored
Warning: card / ignored

     Current dimensions of program PWSCF are:
     Max number of different atomic species (ntypx) = 10
     Max number of k-points (npk) =  40000
     Max angular momentum in pseudopotentials (lmaxx) =  3
     Message from routine read_upf::
     Pseudo file /rds/homes/b/bxp912/pp/Al.pbe-nl-kjpaw_psl.1.0.0.UPF has been successfully fixed on the fly.
To avoid this message in the future you can permanently fix 
 your pseudo files following instructions given in: 
https://gitlab.com/QEF/q-e/blob/master/upftools/how_to_fix_upf.md
               file Al.pbe-nl-kjpaw_psl.1.0.0.UPF: wavefunction(s)  3S 3P renormalized

     Subspace diagonalization in iterative solution of the eigenvalue problem:
     a serial algorithm will be used

 
     Parallelization info
     --------------------
     sticks:   dense  smooth     PW     G-vecs:    dense   smooth      PW
     Min         148     148     41                 6092     6092     891
     Max         149     149     42                 6097     6097     894
     Sum        2965    2965    829               121865   121865   17845
 


     bravais-lattice index     =            0
     lattice parameter (alat)  =      15.2712  a.u.
     unit-cell volume          =    3561.3897 (a.u.)^3
     number of atoms/cell      =           32
     number of atomic types    =            1
     number of electrons       =        96.00
     number of Kohn-Sham states=           58
     kinetic-energy cutoff     =      40.0000  Ry
     charge density cutoff     =     160.0000  Ry
     convergence threshold     =      1.0E-06
     mixing beta               =       0.1000
     number of iterations used =           10  TF        mixing
     Exchange-correlation      = SLA PW PBX PBC ( 1  4  3  4 0 0)

     celldm(1)=  15.271200  celldm(2)=   0.000000  celldm(3)=   0.000000
     celldm(4)=   0.000000  celldm(5)=   0.000000  celldm(6)=   0.000000

     crystal axes: (cart. coord. in units of alat)
               a(1) = (   1.000000   0.000000   0.000000 )  
               a(2) = (   0.000000   1.000000   0.000000 )  
               a(3) = (   0.000000   0.000000   1.000000 )  

     reciprocal axes: (cart. coord. in units 2 pi/alat)
               b(1) = (  1.000000  0.000000  0.000000 )  
               b(2) = (  0.000000  1.000000  0.000000 )  
               b(3) = (  0.000000  0.000000  1.000000 )  


     PseudoPot. # 1 for Al read from file:
     /rds/homes/b/bxp912/pp/Al.pbe-nl-kjpaw_psl.1.0.0.UPF
     MD5 check sum: 339dbea23cf3ab9a065ad45c0f9085d7
     Pseudo is Projector augmented-wave + core cor, Zval =  3.0
     Generated using "atomic" code by A. Dal Corso v.5.1
     Shape of augmentation charge: PSQ
     Using radial grid of 1135 points,  4 beta functions with: 
                l(1) =   0
                l(2) =   0
                l(3) =   1
                l(4) =   1
     Q(r) pseudized with 0 coefficients 


     atomic species   valence    mass     pseudopotential
        Al             3.00    26.98200     Al( 1.00)

     No symmetry found



   Cartesian axes

     site n.     atom                  positions (alat units)
         1           Al  tau(   1) = (  -0.0000327   0.0000095   0.0000680  )
         2           Al  tau(   2) = (   0.2500796   0.2498100   0.0000703  )
         3           Al  tau(   3) = (   0.2499071   0.0000305   0.2502955  )
         4           Al  tau(   4) = (  -0.0000200   0.2502187   0.2501837  )
         5           Al  tau(   5) = (   0.0002558   0.0002521   0.4998810  )
         6           Al  tau(   6) = (   0.2501194   0.2498326   0.5000036  )
         7           Al  tau(   7) = (   0.2500278   0.0001539   0.7498880  )
         8           Al  tau(   8) = (   0.0000549   0.2501136   0.7502101  )
         9           Al  tau(   9) = (   0.0002375   0.5001078  -0.0000154  )
        10           Al  tau(  10) = (   0.2501396   0.7501762   0.0004054  )
        11           Al  tau(  11) = (   0.2501891   0.5001088   0.2502510  )
        12           Al  tau(  12) = (   0.0000383   0.7500455   0.2500253  )
        13           Al  tau(  13) = (   0.0001102   0.5001562   0.5000990  )
        14           Al  tau(  14) = (   0.2499640   0.7500632   0.4998706  )
        15           Al  tau(  15) = (   0.2503366   0.4997894   0.7496960  )
        16           Al  tau(  16) = (  -0.0003280   0.7497055   0.7499931  )
        17           Al  tau(  17) = (   0.5002037  -0.0001004  -0.0000387  )
        18           Al  tau(  18) = (   0.7499123   0.2500941  -0.0002332  )
        19           Al  tau(  19) = (   0.7496354  -0.0000959   0.2500771  )
        20           Al  tau(  20) = (   0.4999751   0.2499614   0.2498317  )
        21           Al  tau(  21) = (   0.4999211   0.0002929   0.4999726  )
        22           Al  tau(  22) = (   0.7500684   0.2496958   0.4999523  )
        23           Al  tau(  23) = (   0.7500357  -0.0000687   0.7500257  )
        24           Al  tau(  24) = (   0.5000114   0.2498864   0.7499948  )
        25           Al  tau(  25) = (   0.4998526   0.5001156  -0.0002192  )
        26           Al  tau(  26) = (   0.7497723   0.7500978   0.0002736  )
        27           Al  tau(  27) = (   0.7501007   0.4998018   0.2499462  )
        28           Al  tau(  28) = (   0.5000878   0.7497908   0.2502093  )
        29           Al  tau(  29) = (   0.4996761   0.5001027   0.5000404  )
        30           Al  tau(  30) = (   0.7501658   0.7499872   0.4998547  )
        31           Al  tau(  31) = (   0.7499472   0.5000095   0.7501393  )
        32           Al  tau(  32) = (   0.5000142   0.7499486   0.7499177  )

     number of k points=    63  Marzari-Vanderbilt smearing, width (Ry)=  0.0050
                       cart. coord. in units 2pi/alat
        k(    1) = (   0.1000000   0.1000000   0.1000000), wk =   0.0320000
        k(    2) = (   0.1000000   0.1000000   0.3000000), wk =   0.0320000
        k(    3) = (   0.1000000   0.1000000  -0.5000000), wk =   0.0320000
        k(    4) = (   0.1000000   0.3000000   0.3000000), wk =   0.0320000
        k(    5) = (   0.1000000   0.3000000  -0.5000000), wk =   0.0320000
        k(    6) = (   0.1000000  -0.5000000  -0.5000000), wk =   0.0320000
        k(    7) = (   0.3000000   0.3000000   0.3000000), wk =   0.0320000
        k(    8) = (   0.3000000   0.3000000  -0.5000000), wk =   0.0320000
        k(    9) = (   0.3000000  -0.5000000  -0.5000000), wk =   0.0320000
        k(   10) = (  -0.5000000  -0.5000000  -0.5000000), wk =   0.0160000
        k(   11) = (  -0.1000000  -0.1000000   0.1000000), wk =   0.0320000
        k(   12) = (  -0.1000000   0.1000000  -0.1000000), wk =   0.0320000
        k(   13) = (   0.1000000  -0.1000000  -0.1000000), wk =   0.0320000
        k(   14) = (  -0.1000000  -0.1000000   0.3000000), wk =   0.0320000
        k(   15) = (  -0.1000000   0.1000000  -0.3000000), wk =   0.0320000
        k(   16) = (   0.1000000  -0.1000000  -0.3000000), wk =   0.0320000
        k(   17) = (   0.3000000  -0.1000000   0.1000000), wk =   0.0320000
        k(   18) = (  -0.3000000  -0.1000000  -0.1000000), wk =   0.0320000
        k(   19) = (   0.3000000   0.1000000  -0.1000000), wk =   0.0320000
        k(   20) = (  -0.3000000   0.1000000   0.1000000), wk =   0.0320000
        k(   21) = (  -0.1000000   0.3000000   0.1000000), wk =   0.0320000
        k(   22) = (  -0.1000000  -0.3000000  -0.1000000), wk =   0.0320000
        k(   23) = (   0.1000000   0.3000000  -0.1000000), wk =   0.0320000
        k(   24) = (   0.1000000  -0.3000000   0.1000000), wk =   0.0320000
        k(   25) = (  -0.1000000   0.1000000   0.5000000), wk =   0.0320000
        k(   26) = (  -0.5000000  -0.1000000   0.1000000), wk =   0.0320000
        k(   27) = (   0.5000000  -0.1000000  -0.1000000), wk =   0.0320000
        k(   28) = (  -0.1000000  -0.5000000   0.1000000), wk =   0.0320000
        k(   29) = (  -0.1000000   0.5000000  -0.1000000), wk =   0.0320000
        k(   30) = (  -0.1000000  -0.3000000   0.3000000), wk =   0.0320000
        k(   31) = (  -0.1000000   0.3000000  -0.3000000), wk =   0.0320000
        k(   32) = (   0.1000000  -0.3000000  -0.3000000), wk =   0.0320000
        k(   33) = (   0.3000000   0.1000000  -0.3000000), wk =   0.0320000
        k(   34) = (  -0.3000000  -0.1000000  -0.3000000), wk =   0.0320000
        k(   35) = (   0.3000000  -0.1000000   0.3000000), wk =   0.0320000
        k(   36) = (  -0.3000000   0.1000000   0.3000000), wk =   0.0320000
        k(   37) = (   0.3000000  -0.3000000   0.1000000), wk =   0.0320000
        k(   38) = (  -0.3000000  -0.3000000  -0.1000000), wk =   0.0320000
        k(   39) = (   0.3000000   0.3000000  -0.1000000), wk =   0.0320000
        k(   40) = (  -0.3000000   0.3000000   0.1000000), wk =   0.0320000
        k(   41) = (  -0.1000000   0.3000000   0.5000000), wk =   0.0320000
        k(   42) = (   0.3000000   0.1000000   0.5000000), wk =   0.0320000
        k(   43) = (   0.3000000  -0.1000000  -0.5000000), wk =   0.0320000
        k(   44) = (  -0.5000000  -0.3000000   0.1000000), wk =   0.0320000
        k(   45) = (   0.5000000  -0.3000000  -0.1000000), wk =   0.0320000
        k(   46) = (  -0.1000000  -0.5000000   0.3000000), wk =   0.0320000
        k(   47) = (  -0.1000000   0.5000000  -0.3000000), wk =   0.0320000
        k(   48) = (   0.3000000  -0.5000000   0.1000000), wk =   0.0320000
        k(   49) = (   0.3000000   0.5000000  -0.1000000), wk =   0.0320000
        k(   50) = (  -0.5000000   0.1000000   0.3000000), wk =   0.0320000
        k(   51) = (   0.5000000  -0.1000000   0.3000000), wk =   0.0320000
        k(   52) = (  -0.5000000   0.1000000   0.5000000), wk =   0.0320000
        k(   53) = (  -0.5000000   0.5000000   0.1000000), wk =   0.0320000
        k(   54) = (  -0.3000000  -0.3000000   0.3000000), wk =   0.0320000
        k(   55) = (  -0.3000000   0.3000000  -0.3000000), wk =   0.0320000
        k(   56) = (   0.3000000  -0.3000000  -0.3000000), wk =   0.0320000
        k(   57) = (  -0.3000000   0.3000000   0.5000000), wk =   0.0320000
        k(   58) = (  -0.5000000  -0.3000000   0.3000000), wk =   0.0320000
        k(   59) = (   0.5000000  -0.3000000  -0.3000000), wk =   0.0320000
        k(   60) = (  -0.3000000  -0.5000000   0.3000000), wk =   0.0320000
        k(   61) = (  -0.3000000   0.5000000  -0.3000000), wk =   0.0320000
        k(   62) = (  -0.5000000   0.3000000   0.5000000), wk =   0.0320000
        k(   63) = (  -0.5000000   0.5000000   0.3000000), wk =   0.0320000

     Dense  grid:   121865 G-vectors     FFT dimensions: (  64,  64,  64)

     Estimated max dynamical RAM per process >      63.57 MB

     Estimated total dynamical RAM >       1.24 GB

     Initial potential from superposition of free atoms

     starting charge   95.92671, renormalised to   96.00000
     Starting wfcs are  128 randomized atomic wfcs
     Checking if some PAW data can be deallocated... 

     total cpu time spent up to now is        7.9 secs

     Self-consistent Calculation

     iteration #  1     ecut=    40.00 Ry     beta= 0.10
     Davidson diagonalization with overlap
     ethr =  1.00E-02,  avg # of iterations =  3.0

     Threshold (ethr) on eigenvalues was too large:
     Diagonalizing with lowered threshold

     Davidson diagonalization with overlap
     ethr =  1.92E-04,  avg # of iterations =  3.6

     total cpu time spent up to now is       32.2 secs

     total energy              =   -1264.13575173 Ry
     Harris-Foulkes estimate   =   -1264.14206461 Ry
     estimated scf accuracy    <       0.17973653 Ry

     iteration #  2     ecut=    40.00 Ry     beta= 0.10
     Davidson diagonalization with overlap
     ethr =  1.87E-04,  avg # of iterations =  1.0

     total cpu time spent up to now is       39.9 secs

     total energy              =   -1264.08808248 Ry
     Harris-Foulkes estimate   =   -1264.13663338 Ry
     estimated scf accuracy    <       0.15603777 Ry

     iteration #  3     ecut=    40.00 Ry     beta= 0.10
     Davidson diagonalization with overlap
     ethr =  1.63E-04,  avg # of iterations =  1.0

     total cpu time spent up to now is       47.7 secs

     total energy              =   -1264.09098445 Ry
     Harris-Foulkes estimate   =   -1264.09111616 Ry
     estimated scf accuracy    <       0.00062088 Ry

     iteration #  4     ecut=    40.00 Ry     beta= 0.10
     Davidson diagonalization with overlap
     ethr =  6.47E-07,  avg # of iterations =  4.8

     total cpu time spent up to now is       64.6 secs

     total energy              =   -1264.09163216 Ry
     Harris-Foulkes estimate   =   -1264.09179095 Ry
     estimated scf accuracy    <       0.00038176 Ry

     iteration #  5     ecut=    40.00 Ry     beta= 0.10
     Davidson diagonalization with overlap
     ethr =  3.98E-07,  avg # of iterations =  1.0

     total cpu time spent up to now is       72.4 secs

     total energy              =   -1264.09141450 Ry
     Harris-Foulkes estimate   =   -1264.09164401 Ry
     estimated scf accuracy    <       0.00024844 Ry

     iteration #  6     ecut=    40.00 Ry     beta= 0.10
     Davidson diagonalization with overlap
     ethr =  2.59E-07,  avg # of iterations =  2.0

     total cpu time spent up to now is       83.2 secs

     total energy              =   -1264.09148215 Ry
     Harris-Foulkes estimate   =   -1264.09147923 Ry
     estimated scf accuracy    <       0.00001045 Ry

     iteration #  7     ecut=    40.00 Ry     beta= 0.10
     Davidson diagonalization with overlap
     ethr =  1.09E-08,  avg # of iterations =  2.9

     total cpu time spent up to now is       92.7 secs

     total energy              =   -1264.09147562 Ry
     Harris-Foulkes estimate   =   -1264.09148317 Ry
     estimated scf accuracy    <       0.00000575 Ry

     iteration #  8     ecut=    40.00 Ry     beta= 0.10
     Davidson diagonalization with overlap
     ethr =  5.99E-09,  avg # of iterations =  2.2

     total cpu time spent up to now is      103.8 secs

     End of self-consistent calculation

          k = 0.1000 0.1000 0.1000 ( 15233 PWs)   bands (ev):

    -3.1653  -1.3660  -1.3638  -1.3610  -0.4739  -0.4717  -0.4689   0.4134
     0.4157   0.4185   1.2941   1.2944   1.2971   1.2976   1.2989   1.3002
     2.1702   2.1724   2.1736   2.1754   3.0357   3.0365   3.0373   3.9311
     3.9318   3.9326   4.6169   4.6175   4.6181   4.7861   6.2929   6.2932
     6.2962   6.2968   6.2980   6.2991   6.7982   6.7989   6.7995   7.1375
     7.1380   7.1399   7.1412   7.1424   7.1429   7.9918   7.9941   7.9969
     8.4389   8.4395   8.4412   8.4421   8.4439   8.4454   8.8310   8.8317
     8.8340   8.8348

          k = 0.1000 0.1000 0.3000 ( 15215 PWs)   bands (ev):

    -2.9841  -2.0816  -1.1852  -1.1842  -0.2955  -0.2946  -0.2931  -0.2907
     0.5900   0.5910   0.5921   0.5948   1.4710   1.4730   1.4750   2.3444
     2.3455   2.3464   2.3476   2.3501   3.1902   3.2085   3.2144   3.2154
     4.1041   4.7861   4.7866   4.9058   4.9070   4.9562   4.9569   5.6282
     5.6288   5.7453   5.7464   5.8129   6.4888   6.4899   6.6303   6.9698
     6.9704   7.3176   7.3187   7.3221   7.3233   7.4776   7.4785   7.7553
     7.7563   8.1611   8.1618   8.2305   8.2306   8.3235   8.5391   8.7129
     8.7136   9.4630

          k = 0.1000 0.1000-0.5000 ( 15226 PWs)   bands (ev):

    -2.6238  -2.6210  -0.8293  -0.8287  -0.8267  -0.8251   0.0595   0.0602
     0.0621   0.0637   0.9442   0.9471   1.8158   1.8170   1.8218   1.8225
     1.8247   1.8254   2.6936   2.6965   3.5541   3.5552   3.5553   3.5564
     4.4134   4.4146   4.4146   4.4157   5.1220   5.1225   5.1249   5.1256
     5.2927   5.2939   6.1461   6.1466   6.1474   6.1483   6.8163   6.8169
     6.8190   6.8207   6.9981   6.9994   7.3051   7.3057   7.3079   7.3088
     7.6548   7.6553   7.6574   7.6591   9.0700   9.0705   9.0723   9.0740
     9.3463   9.3481

          k = 0.1000 0.3000 0.3000 ( 15228 PWs)   bands (ev):

    -2.8032  -1.9032  -1.9002  -1.0066  -1.0052  -0.1178  -0.1161  -0.1133
     0.7653   0.7669   0.7674   0.7697   0.7724   1.6456   1.6465   1.6494
     2.5187   2.5217   3.3623   3.3635   3.3789   3.3801   3.3858   3.3886
     4.2217   4.2247   4.2472   4.2767   4.2779   4.9550   5.0651   5.0663
     5.7895   5.7929   5.9491   5.9522   5.9592   5.9604   5.9821   6.6504
     6.7649   6.7670   6.7977   6.8008   6.8349   7.1355   8.0661   8.0683
     8.3125   8.3160   8.4888   8.4905   8.7017   8.7031   8.9095   9.1651
     9.1671   9.3234

          k = 0.1000 0.3000-0.5000 ( 15214 PWs)   bands (ev):

    -2.4433  -2.4405  -1.5441  -1.5413  -0.6506  -0.6478   0.2351   0.2383
     0.2402   0.2416   1.1170   1.1202   1.1216   1.1231   1.9909   1.9921
     2.8617   2.8630   2.8663   2.8690   3.7063   3.7092   3.7218   3.7243
     3.7265   3.7279   4.5741   4.5752   4.6166   4.6178   5.2900   5.2930
     5.4258   5.4269   5.4501   5.4527   5.4637   5.4650   6.1536   6.1564
     6.2885   6.2914   7.1657   7.1671   7.4108   7.4132   8.0136   8.0149
     8.0773   8.0783   8.3968   8.3995   8.6588   8.6619   8.9966   8.9993
     9.5434   9.5450

          k = 0.1000-0.5000-0.5000 ( 15200 PWs)   bands (ev):

    -2.0839  -2.0829  -2.0805  -2.0790  -0.2956  -0.2945  -0.2921  -0.2907
     0.5899   0.5910   0.5934   0.5949   2.3365   2.3382   2.3387   2.3398
     2.3405   2.3427   2.3437   2.3444   4.0571   4.0588   4.0594   4.0606
     4.0610   4.0634   4.0644   4.0651   4.9574   4.9588   4.9593   4.9603
     4.9614   4.9633   4.9644   4.9650   5.6202   5.6214   5.6239   5.6255
     6.6125   6.6130   6.6144   6.6151   7.9048   7.9056   7.9076   7.9088
     8.3419   8.3425   8.3437   8.3445   9.1852   9.1858   9.1871   9.1879
     9.8165   9.8195

          k = 0.3000 0.3000 0.3000 ( 15225 PWs)   bands (ev):

    -2.6224  -1.7245  -1.7223  -1.7195  -0.8298  -0.8276  -0.8248   0.0620
     0.9411   0.9434   0.9462   1.8189   1.8192   1.8218   1.8224   1.8236
     1.8249   2.6930   2.6938   2.6945   3.5347   3.5355   3.5362   4.3903
     4.3906   4.3933   4.3940   4.3952   4.3965   4.4056   4.4079   4.4107
     5.2783   5.2806   5.2835   5.2972   5.2980   5.2988   6.9571   6.9576
     6.9591   6.9605   6.9616   6.9622   7.8102   7.8107   7.8122   7.8135
     7.8147   7.8152   7.8516   8.8265   8.8277   8.8288   9.5311   9.5316
     9.5322   9.7438

          k = 0.3000 0.3000-0.5000 ( 15196 PWs)   bands (ev):

    -2.2630  -2.2602  -1.3654  -1.3648  -1.3628  -1.3612  -0.4724  -0.4696
     1.2936   1.2943   1.2962   1.2978   2.1652   2.1665   2.1698   2.1705
     2.1727   2.1734   3.0348   3.0359   3.0360   3.0371   3.8779   3.8784
     3.8805   3.8814   3.8893   3.8903   4.7227   4.7234   4.7254   4.7269
     4.7925   4.7952   5.6410   5.6422   5.6424   5.6434   6.4842   6.4848
     6.4855   6.4865   7.3010   7.3016   7.3036   7.3052   8.1104   8.1111
     8.1116   8.1126   8.9823   8.9836   8.9839   8.9849   9.0244   9.0257
     9.2694   9.2716

          k = 0.3000-0.5000-0.5000 ( 15212 PWs)   bands (ev):

    -1.9041  -1.9030  -1.9006  -1.8992  -1.0083  -1.0072  -1.0048  -1.0033
     1.6442   1.6453   1.6477   1.6492   2.5107   2.5124   2.5129   2.5140
     2.5147   2.5169   2.5179   2.5186   3.3773   3.3790   3.3795   3.3806
     3.3813   3.3835   3.3845   3.3852   4.2193   4.2205   4.2230   4.2245
     5.9700   5.9716   5.9721   5.9732   5.9741   5.9762   5.9773   5.9780
     6.8086   6.8092   6.8104   6.8111   7.6638   7.6643   7.6655   7.6663
     8.4680   8.4699   8.4705   8.4717   8.4726   8.4749   8.4760   8.4769
     9.5919   9.5946

          k =-0.5000-0.5000-0.5000 ( 15192 PWs)   bands (ev):

    -1.5476  -1.5468  -1.5438  -1.5434  -1.5424  -1.5405  -1.5401  -1.5373
     2.8546   2.8549   2.8563   2.8569   2.8582   2.8590   2.8593   2.8603
     2.8607   2.8613   2.8615   2.8620   2.8626   2.8629   2.8635   2.8636
     2.8644   2.8654   2.8658   2.8662   2.8672   2.8685   2.8701   2.8721
     7.1468   7.1477   7.1484   7.1490   7.1503   7.1508   7.1513   7.1515
     7.1516   7.1523   7.1535   7.1540   7.1547   7.1549   7.1552   7.1559
     7.1564   7.1570   7.1573   7.1576   7.1585   7.1592   7.1610   7.1612
    11.3514  11.5651

          k =-0.1000-0.1000 0.1000 ( 15233 PWs)   bands (ev):

    -3.1653  -1.3655  -1.3638  -1.3615  -0.4734  -0.4717  -0.4694   0.4139
     0.4157   0.4180   1.2932   1.2959   1.2963   1.2975   1.2989   1.3005
     2.1708   2.1725   2.1735   2.1749   3.0360   3.0365   3.0370   3.9314
     3.9318   3.9323   4.6171   4.6175   4.6179   4.7861   6.2919   6.2949
     6.2957   6.2963   6.2981   6.2995   6.7985   6.7989   6.7993   7.1374
     7.1392   7.1400   7.1407   7.1417   7.1429   7.9923   7.9941   7.9964
     8.4386   8.4399   8.4413   8.4426   8.4436   8.4451   8.8309   8.8321
     8.8333   8.8348

          k =-0.1000 0.1000-0.1000 ( 15233 PWs)   bands (ev):

    -3.1653  -1.3660  -1.3636  -1.3612  -0.4739  -0.4715  -0.4691   0.4135
     0.4159   0.4183   1.2942   1.2947   1.2959   1.2970   1.2994   1.3010
     2.1703   2.1727   2.1734   2.1752   3.0357   3.0365   3.0373   3.9310
     3.9318   3.9326   4.6168   4.6175   4.6182   4.7861   6.2931   6.2937
     6.2948   6.2960   6.2986   6.3000   6.7982   6.7989   6.7996   7.1377
     7.1385   7.1392   7.1411   7.1423   7.1431   7.9918   7.9942   7.9967
     8.4387   8.4397   8.4410   8.4425   8.4439   8.4454   8.8316   8.8320
     8.8337   8.8354

          k = 0.1000-0.1000-0.1000 ( 15233 PWs)   bands (ev):

    -3.1653  -1.3657  -1.3642  -1.3610  -0.4736  -0.4721  -0.4688   0.4138
     0.4153   0.4185   1.2939   1.2949   1.2964   1.2974   1.2987   1.3010
     2.1706   2.1720   2.1735   2.1755   3.0356   3.0365   3.0374   3.9309
     3.9318   3.9327   4.6167   4.6175   4.6182   4.7861   6.2928   6.2940
     6.2953   6.2964   6.2976   6.3002   6.7981   6.7989   6.7996   7.1373
     7.1389   7.1394   7.1413   7.1417   7.1435   7.9921   7.9937   7.9969
     8.4392   8.4394   8.4408   8.4423   8.4436   8.4458   8.8307   8.8326
     8.8329   8.8347

          k =-0.1000-0.1000 0.3000 ( 15215 PWs)   bands (ev):

    -2.9841  -2.0816  -1.1852  -1.1842  -0.2953  -0.2946  -0.2925  -0.2914
     0.5896   0.5914   0.5926   0.5943   1.4710   1.4728   1.4752   2.3444
     2.3450   2.3467   2.3478   2.3501   3.1903   3.2083   3.2143   3.2157
     4.1041   4.7861   4.7866   4.9058   4.9070   4.9562   4.9569   5.6282
     5.6288   5.7453   5.7464   5.8129   6.4888   6.4899   6.6303   6.9698
     6.9704   7.3176   7.3184   7.3221   7.3236   7.4777   7.4785   7.7553
     7.7563   8.1611   8.1617   8.2305   8.2306   8.3235   8.5391   8.7129
     8.7135   9.4629

          k =-0.1000 0.1000-0.3000 ( 15215 PWs)   bands (ev):

    -2.9841  -2.0816  -1.1856  -1.1838  -0.2958  -0.2933  -0.2930  -0.2917
     0.5892   0.5911   0.5931   0.5945   1.4714   1.4731   1.4744   2.3443
     2.3451   2.3465   2.3485   2.3496   3.1903   3.2081   3.2138   3.2163
     4.1041   4.7858   4.7869   4.9054   4.9074   4.9558   4.9573   5.6279
     5.6291   5.7449   5.7468   5.8129   6.4884   6.4903   6.6303   6.9695
     6.9707   7.3180   7.3190   7.3214   7.3234   7.4772   7.4789   7.7548
     7.7568   8.1608   8.1620   8.2305   8.2307   8.3235   8.5391   8.7126
     8.7138   9.4640

          k = 0.1000-0.1000-0.3000 ( 15215 PWs)   bands (ev):

    -2.9841  -2.0816  -1.1856  -1.1838  -0.2955  -0.2953  -0.2928  -0.2903
     0.5902   0.5916   0.5925   0.5937   1.4707   1.4724   1.4759   2.3447
     2.3450   2.3465   2.3475   2.3502   3.1903   3.2086   3.2138   3.2158
     4.1041   4.7858   4.7869   4.9054   4.9074   4.9558   4.9573   5.6279
     5.6291   5.7448   5.7468   5.8129   6.4884   6.4903   6.6303   6.9695
     6.9707   7.3166   7.3188   7.3227   7.3236   7.4772   7.4789   7.7548
     7.7568   8.1608   8.1620   8.2305   8.2306   8.3235   8.5391   8.7126
     8.7138   9.4622

          k = 0.3000-0.1000 0.1000 ( 15215 PWs)   bands (ev):

    -2.9841  -2.0816  -1.1857  -1.1836  -0.2948  -0.2943  -0.2938  -0.2909
     0.5885   0.5924   0.5931   0.5940   1.4717   1.4730   1.4743   2.3441
     2.3452   2.3464   2.3487   2.3495   3.1903   3.2078   3.2143   3.2161
     4.1041   4.7861   4.7866   4.9053   4.9075   4.9563   4.9569   5.6283
     5.6288   5.7447   5.7469   5.8129   6.4883   6.4904   6.6303   6.9698
     6.9703   7.3178   7.3191   7.3215   7.3233   7.4777   7.4784   7.7554
     7.7563   8.1607   8.1620   8.2306   8.2306   8.3235   8.5391   8.7125
     8.7139   9.4623

          k =-0.3000-0.1000-0.1000 ( 15215 PWs)   bands (ev):

    -2.9841  -2.0816  -1.1862  -1.1832  -0.2959  -0.2941  -0.2934  -0.2905
     0.5884   0.5910   0.5935   0.5951   1.4718   1.4731   1.4741   2.3433
     2.3450   2.3475   2.3484   2.3497   3.1903   3.2077   3.2137   3.2168
     4.1041   4.7858   4.7868   4.9048   4.9080   4.9559   4.9572   5.6280
     5.6290   5.7442   5.7474   5.8129   6.4878   6.4909   6.6303   6.9695
     6.9706   7.3175   7.3195   7.3209   7.3237   7.4774   7.4788   7.7550
     7.7567   8.1605   8.1623   8.2306   8.2307   8.3235   8.5391   8.7122
     8.7142   9.4624

          k = 0.3000 0.1000-0.1000 ( 15215 PWs)   bands (ev):

    -2.9841  -2.0816  -1.1857  -1.1836  -0.2952  -0.2942  -0.2930  -0.2914
     0.5892   0.5920   0.5927   0.5940   1.4716   1.4730   1.4743   2.3442
     2.3456   2.3468   2.3480   2.3495   3.1903   3.2081   3.2142   3.2160
     4.1041   4.7861   4.7866   4.9053   4.9075   4.9563   4.9569   5.6283
     5.6288   5.7447   5.7469   5.8129   6.4883   6.4904   6.6303   6.9698
     6.9703   7.3179   7.3189   7.3215   7.3233   7.4777   7.4785   7.7554
     7.7563   8.1607   8.1620   8.2306   8.2307   8.3235   8.5391   8.7125
     8.7139   9.4640

          k =-0.3000 0.1000 0.1000 ( 15215 PWs)   bands (ev):

    -2.9841  -2.0816  -1.1862  -1.1832  -0.2956  -0.2948  -0.2932  -0.2904
     0.5894   0.5909   0.5926   0.5951   1.4715   1.4726   1.4748   2.3436
     2.3456   2.3471   2.3476   2.3501   3.1903   3.2082   3.2134   3.2165
     4.1041   4.7859   4.7868   4.9048   4.9080   4.9559   4.9572   5.6280
     5.6290   5.7443   5.7474   5.8129   6.4878   6.4909   6.6303   6.9695
     6.9706   7.3169   7.3196   7.3215   7.3237   7.4773   7.4788   7.7550
     7.7567   8.1605   8.1624   8.2305   8.2307   8.3235   8.5391   8.7122
     8.7142   9.4620

          k =-0.1000 0.3000 0.1000 ( 15215 PWs)   bands (ev):

    -2.9841  -2.0816  -1.1863  -1.1830  -0.2962  -0.2942  -0.2940  -0.2895
     0.5894   0.5908   0.5933   0.5945   1.4707   1.4727   1.4755   2.3430
     2.3456   2.3472   2.3483   2.3498   3.1903   3.2084   3.2133   3.2165
     4.1041   4.7863   4.7864   4.9047   4.9082   4.9565   4.9566   5.6285
     5.6285   5.7441   5.7476   5.8129   6.4877   6.4910   6.6303   6.9700
     6.9701   7.3171   7.3181   7.3221   7.3243   7.4780   7.4781   7.7558
     7.7559   8.1604   8.1624   8.2306   8.2306   8.3235   8.5391   8.7122
     8.7143   9.4614

          k =-0.1000-0.3000-0.1000 ( 15215 PWs)   bands (ev):

    -2.9841  -2.0816  -1.1866  -1.1827  -0.2964  -0.2948  -0.2935  -0.2891
     0.5889   0.5915   0.5931   0.5946   1.4707   1.4730   1.4753   2.3435
     2.3450   2.3471   2.3486   2.3498   3.1903   3.2082   3.2132   3.2168
     4.1041   4.7861   4.7866   4.9044   4.9085   4.9562   4.9569   5.6282
     5.6288   5.7438   5.7479   5.8129   6.4874   6.4913   6.6303   6.9698
     6.9703   7.3169   7.3189   7.3210   7.3249   7.4777   7.4785   7.7554
     7.7563   8.1602   8.1626   8.2305   8.2306   8.3235   8.5391   8.7120
     8.7144   9.4611

          k = 0.1000 0.3000-0.1000 ( 15215 PWs)   bands (ev):

    -2.9841  -2.0816  -1.1863  -1.1830  -0.2963  -0.2943  -0.2924  -0.2909
     0.5892   0.5913   0.5927   0.5948   1.4715   1.4728   1.4747   2.3435
     2.3456   2.3470   2.3480   2.3498   3.1903   3.2080   3.2133   3.2169
     4.1041   4.7863   4.7864   4.9047   4.9082   4.9565   4.9566   5.6285
     5.6286   5.7441   5.7476   5.8129   6.4877   6.4910   6.6303   6.9700
     6.9701   7.3173   7.3192   7.3211   7.3241   7.4780   7.4781   7.7558
     7.7559   8.1604   8.1624   8.2306   8.2306   8.3235   8.5391   8.7122
     8.7143   9.4614

          k = 0.1000-0.3000 0.1000 ( 15215 PWs)   bands (ev):

    -2.9841  -2.0816  -1.1866  -1.1827  -0.2969  -0.2942  -0.2923  -0.2903
     0.5886   0.5914   0.5928   0.5952   1.4712   1.4728   1.4750   2.3434
     2.3449   2.3470   2.3484   2.3503   3.1903   3.2080   3.2133   3.2169
     4.1041   4.7861   4.7866   4.9044   4.9085   4.9562   4.9569   5.6282
     5.6288   5.7438   5.7479   5.8129   6.4874   6.4913   6.6303   6.9698
     6.9703   7.3169   7.3193   7.3210   7.3244   7.4777   7.4785   7.7554
     7.7563   8.1602   8.1625   8.2306   8.2307   8.3235   8.5391   8.7120
     8.7144   9.4616

          k =-0.1000 0.1000 0.5000 ( 15226 PWs)   bands (ev):

    -2.6238  -2.6210  -0.8299  -0.8281  -0.8271  -0.8248   0.0589   0.0608
     0.0617   0.0640   0.9442   0.9471   1.8155   1.8169   1.8217   1.8229
     1.8244   1.8258   2.6936   2.6965   3.5537   3.5549   3.5556   3.5568
     4.4130   4.4142   4.4149   4.4161   5.1217   5.1228   5.1247   5.1257
     5.2927   5.2939   6.1456   6.1468   6.1475   6.1485   6.8157   6.8176
     6.8186   6.8210   6.9981   6.9994   7.3048   7.3061   7.3077   7.3090
     7.6546   7.6557   7.6574   7.6589   9.0697   9.0708   9.0724   9.0739
     9.3468   9.3476

          k =-0.5000-0.1000 0.1000 ( 15226 PWs)   bands (ev):

    -2.6239  -2.6209  -0.8305  -0.8279  -0.8265  -0.8250   0.0583   0.0610
     0.0623   0.0639   0.9441   0.9472   1.8157   1.8168   1.8219   1.8224
     1.8246   1.8259   2.6935   2.6966   3.5535   3.5549   3.5557   3.5570
     4.4128   4.4142   4.4150   4.4163   5.1220   5.1222   5.1247   5.1259
     5.2926   5.2940   6.1460   6.1467   6.1470   6.1488   6.8150   6.8177
     6.8192   6.8208   6.9980   6.9995   7.3051   7.3056   7.3077   7.3092
     7.6540   7.6558   7.6579   7.6589   9.0692   9.0710   9.0728   9.0739
     9.3462   9.3474

          k = 0.5000-0.1000-0.1000 ( 15226 PWs)   bands (ev):

    -2.6239  -2.6209  -0.8308  -0.8274  -0.8270  -0.8247   0.0580   0.0614
     0.0619   0.0642   0.9441   0.9472   1.8158   1.8166   1.8214   1.8229
     1.8248   1.8257   2.6935   2.6966   3.5530   3.5544   3.5562   3.5574
     4.4123   4.4137   4.4156   4.4167   5.1216   5.1226   5.1248   5.1258
     5.2926   5.2940   6.1457   6.1469   6.1474   6.1485   6.8149   6.8182
     6.8186   6.8211   6.9980   6.9995   7.3047   7.3059   7.3079   7.3090
     7.6543   7.6557   7.6571   7.6596   9.0694   9.0708   9.0720   9.0746
     9.3463   9.3475

          k =-0.1000-0.5000 0.1000 ( 15226 PWs)   bands (ev):

    -2.6228  -2.6221  -0.8295  -0.8290  -0.8266  -0.8248   0.0593   0.0598
     0.0622   0.0640   0.9453   0.9460   1.8159   1.8166   1.8231   1.8232
     1.8240   1.8244   2.6947   2.6954   3.5535   3.5536   3.5567   3.5572
     4.4128   4.4129   4.4160   4.4166   5.1233   5.1234   5.1241   5.1242
     5.2931   5.2935   6.1468   6.1469   6.1473   6.1474   6.8162   6.8167
     6.8191   6.8209   6.9986   6.9989   7.3064   7.3065   7.3072   7.3073
     7.6549   7.6562   7.6574   7.6580   9.0699   9.0713   9.0724   9.0730
     9.3468   9.3469

          k =-0.1000 0.5000-0.1000 ( 15226 PWs)   bands (ev):

    -2.6228  -2.6221  -0.8298  -0.8291  -0.8260  -0.8249   0.0590   0.0597
     0.0628   0.0639   0.9453   0.9460   1.8158   1.8164   1.8231   1.8235
     1.8237   1.8246   2.6947   2.6954   3.5531   3.5534   3.5571   3.5574
     4.4124   4.4127   4.4164   4.4168   5.1233   5.1234   5.1236   5.1246
     5.2931   5.2935   6.1465   6.1469   6.1470   6.1481   6.8159   6.8166
     6.8196   6.8208   6.9986   6.9989   7.3064   7.3065   7.3067   7.3079
     7.6552   7.6558   7.6573   7.6583   9.0702   9.0708   9.0723   9.0733
     9.3468   9.3475

          k =-0.1000-0.3000 0.3000 ( 15228 PWs)   bands (ev):

    -2.8032  -1.9028  -1.9007  -1.0066  -1.0053  -0.1186  -0.1151  -0.1135
     0.7656   0.7666   0.7674   0.7703   0.7717   1.6457   1.6468   1.6490
     2.5192   2.5213   3.3627   3.3633   3.3791   3.3795   3.3862   3.3885
     4.2222   4.2243   4.2472   4.2770   4.2776   4.9550   5.0654   5.0660
     5.7900   5.7924   5.9496   5.9516   5.9595   5.9603   5.9821   6.6504
     6.7652   6.7667   6.7982   6.8003   6.8348   7.1355   8.0665   8.0679
     8.3131   8.3155   8.4891   8.4902   8.7021   8.7028   8.9095   9.1656
     9.1666   9.3234

          k =-0.1000 0.3000-0.3000 ( 15228 PWs)   bands (ev):

    -2.8032  -1.9028  -1.9007  -1.0061  -1.0058  -0.1182  -0.1152  -0.1139
     0.7659   0.7667   0.7681   0.7696   0.7714   1.6457   1.6468   1.6490
     2.5192   2.5213   3.3627   3.3633   3.3790   3.3798   3.3861   3.3883
     4.2222   4.2243   4.2472   4.2770   4.2776   4.9550   5.0654   5.0660
     5.7900   5.7924   5.9496   5.9517   5.9595   5.9601   5.9820   6.6504
     6.7652   6.7667   6.7982   6.8004   6.8349   7.1355   8.0665   8.0679
     8.3131   8.3155   8.4891   8.4902   8.7021   8.7028   8.9095   9.1656
     9.1666   9.3234

          k = 0.1000-0.3000-0.3000 ( 15228 PWs)   bands (ev):

    -2.8032  -1.9032  -1.9002  -1.0070  -1.0049  -0.1187  -0.1158  -0.1128
     0.7653   0.7657   0.7679   0.7706   0.7722   1.6457   1.6470   1.6488
     2.5187   2.5217   3.3623   3.3635   3.3787   3.3799   3.3859   3.3889
     4.2217   4.2247   4.2473   4.2767   4.2779   4.9550   5.0651   5.0663
     5.7895   5.7929   5.9489   5.9520   5.9593   5.9606   5.9821   6.6504
     6.7649   6.7670   6.7977   6.8008   6.8349   7.1355   8.0661   8.0683
     8.3125   8.3160   8.4888   8.4905   8.7017   8.7032   8.9095   9.1652
     9.1671   9.3234

          k = 0.3000 0.1000-0.3000 ( 15228 PWs)   bands (ev):

    -2.8032  -1.9034  -1.9001  -1.0067  -1.0052  -0.1179  -0.1157  -0.1137
     0.7645   0.7669   0.7677   0.7703   0.7722   1.6449   1.6465   1.6501
     2.5185   2.5219   3.3629   3.3630   3.3794   3.3797   3.3856   3.3887
     4.2215   4.2249   4.2471   4.2772   4.2775   4.9550   5.0656   5.0658
     5.7893   5.7930   5.9491   5.9524   5.9596   5.9598   5.9820   6.6504
     6.7648   6.7670   6.7976   6.8010   6.8349   7.1355   8.0660   8.0684
     8.3124   8.3162   8.4888   8.4906   8.7024   8.7025   8.9095   9.1660
     9.1662   9.3234

          k =-0.3000-0.1000-0.3000 ( 15228 PWs)   bands (ev):

    -2.8032  -1.9037  -1.8998  -1.0066  -1.0053  -0.1188  -0.1152  -0.1133
     0.7643   0.7661   0.7688   0.7701   0.7723   1.6454   1.6466   1.6495
     2.5182   2.5222   3.3626   3.3632   3.3789   3.3799   3.3854   3.3892
     4.2212   4.2252   4.2472   4.2770   4.2777   4.9550   5.0654   5.0660
     5.7890   5.7934   5.9487   5.9525   5.9594   5.9602   5.9821   6.6504
     6.7647   6.7672   6.7973   6.8013   6.8349   7.1355   8.0658   8.0686
     8.3120   8.3165   8.4886   8.4907   8.7020   8.7028   8.9095   9.1656
     9.1666   9.3234

          k = 0.3000-0.1000 0.3000 ( 15228 PWs)   bands (ev):

    -2.8032  -1.9037  -1.8998  -1.0070  -1.0049  -0.1185  -0.1152  -0.1136
     0.7647   0.7663   0.7678   0.7702   0.7726   1.6449   1.6468   1.6498
     2.5182   2.5222   3.3626   3.3633   3.3792   3.3799   3.3853   3.3891
     4.2213   4.2252   4.2471   4.2771   4.2776   4.9550   5.0654   5.0660
     5.7890   5.7933   5.9487   5.9527   5.9594   5.9600   5.9820   6.6504
     6.7646   6.7672   6.7973   6.8014   6.8348   7.1355   8.0658   8.0686
     8.3120   8.3165   8.4886   8.4907   8.7020   8.7028   8.9095   9.1656
     9.1666   9.3234

          k =-0.3000 0.1000 0.3000 ( 15228 PWs)   bands (ev):

    -2.8032  -1.9034  -1.9001  -1.0061  -1.0058  -0.1182  -0.1162  -0.1129
     0.7649   0.7670   0.7685   0.7692   0.7721   1.6456   1.6465   1.6493
     2.5185   2.5219   3.3630   3.3631   3.3791   3.3795   3.3856   3.3889
     4.2216   4.2249   4.2472   4.2772   4.2774   4.9550   5.0656   5.0657
     5.7893   5.7930   5.9489   5.9523   5.9596   5.9601   5.9820   6.6504
     6.7648   6.7671   6.7976   6.8010   6.8349   7.1355   8.0660   8.0684
     8.3124   8.3162   8.4888   8.4906   8.7024   8.7025   8.9095   9.1660
     9.1662   9.3234

          k = 0.3000-0.3000 0.1000 ( 15228 PWs)   bands (ev):

    -2.8032  -1.9027  -1.9008  -1.0066  -1.0052  -0.1169  -0.1158  -0.1146
     0.7656   0.7661   0.7688   0.7696   0.7715   1.6449   1.6462   1.6504
     2.5193   2.5212   3.3623   3.3637   3.3790   3.3804   3.3860   3.3879
     4.2223   4.2242   4.2471   4.2766   4.2781   4.9550   5.0650   5.0664
     5.7901   5.7922   5.9499   5.9518   5.9589   5.9603   5.9820   6.6504
     6.7652   6.7666   6.7984   6.8003   6.8348   7.1355   8.0665   8.0679
     8.3132   8.3154   8.4891   8.4902   8.7016   8.7032   8.9095   9.1650
     9.1672   9.3234

          k =-0.3000-0.3000-0.1000 ( 15228 PWs)   bands (ev):

    -2.8032  -1.9023  -1.9012  -1.0061  -1.0058  -0.1174  -0.1160  -0.1139
     0.7659   0.7663   0.7682   0.7696   0.7716   1.6452   1.6466   1.6498
     2.5197   2.5208   3.3626   3.3633   3.3791   3.3798   3.3867   3.3877
     4.2227   4.2238   4.2472   4.2770   4.2777   4.9550   5.0654   5.0660
     5.7906   5.7918   5.9502   5.9513   5.9594   5.9601   5.9820   6.6504
     6.7655   6.7663   6.7988   6.7999   6.8349   7.1355   8.0668   8.0676
     8.3136   8.3149   8.4894   8.4900   8.7021   8.7028   8.9095   9.1656
     9.1667   9.3234

          k = 0.3000 0.3000-0.1000 ( 15228 PWs)   bands (ev):

    -2.8032  -1.9023  -1.9012  -1.0070  -1.0049  -0.1171  -0.1156  -0.1146
     0.7657   0.7663   0.7682   0.7695   0.7719   1.6452   1.6468   1.6496
     2.5197   2.5208   3.3626   3.3632   3.3793   3.3799   3.3865   3.3877
     4.2226   4.2238   4.2472   4.2770   4.2777   4.9550   5.0654   5.0660
     5.7906   5.7918   5.9503   5.9513   5.9593   5.9600   5.9821   6.6504
     6.7655   6.7663   6.7988   6.7999   6.8348   7.1355   8.0668   8.0676
     8.3136   8.3149   8.4894   8.4900   8.7020   8.7028   8.9095   9.1656
     9.1667   9.3234

          k =-0.3000 0.3000 0.1000 ( 15228 PWs)   bands (ev):

    -2.8032  -1.9027  -1.9008  -1.0066  -1.0053  -0.1174  -0.1165  -0.1134
     0.7652   0.7672   0.7685   0.7690   0.7718   1.6454   1.6470   1.6491
     2.5193   2.5212   3.3622   3.3636   3.3787   3.3801   3.3863   3.3883
     4.2223   4.2242   4.2472   4.2766   4.2780   4.9550   5.0650   5.0664
     5.7901   5.7922   5.9497   5.9516   5.9591   5.9605   5.9821   6.6504
     6.7653   6.7666   6.7983   6.8002   6.8349   7.1355   8.0665   8.0679
     8.3132   8.3154   8.4891   8.4902   8.7016   8.7033   8.9095   9.1650
     9.1672   9.3234

          k =-0.1000 0.3000 0.5000 ( 15214 PWs)   bands (ev):

    -2.4433  -2.4405  -1.5441  -1.5413  -0.6506  -0.6478   0.2354   0.2385
     0.2395   0.2419   1.1178   1.1196   1.1215   1.1231   1.9909   1.9921
     2.8619   2.8627   2.8665   2.8689   3.7063   3.7092   3.7220   3.7247
     3.7263   3.7274   4.5741   4.5752   4.6166   4.6178   5.2901   5.2930
     5.4258   5.4269   5.4502   5.4529   5.4636   5.4648   6.1536   6.1564
     6.2885   6.2914   7.1657   7.1671   7.4108   7.4132   8.0136   8.0149
     8.0773   8.0783   8.3968   8.3995   8.6588   8.6619   8.9966   8.9993
     9.5434   9.5450

          k = 0.3000 0.1000 0.5000 ( 15214 PWs)   bands (ev):

    -2.4433  -2.4405  -1.5441  -1.5413  -0.6506  -0.6478   0.2364   0.2377
     0.2400   0.2411   1.1169   1.1200   1.1213   1.1237   1.9908   1.9921
     2.8619   2.8632   2.8660   2.8689   3.7064   3.7092   3.7217   3.7246
     3.7264   3.7277   4.5742   4.5753   4.6165   4.6177   5.2900   5.2930
     5.4258   5.4269   5.4501   5.4528   5.4637   5.4650   6.1536   6.1564
     6.2885   6.2914   7.1657   7.1671   7.4108   7.4132   8.0136   8.0150
     8.0773   8.0783   8.3968   8.3995   8.6589   8.6619   8.9966   8.9992
     9.5434   9.5450

          k = 0.3000-0.1000-0.5000 ( 15214 PWs)   bands (ev):

    -2.4433  -2.4405  -1.5441  -1.5413  -0.6506  -0.6478   0.2355   0.2386
     0.2401   0.2410   1.1166   1.1199   1.1219   1.1235   1.9908   1.9921
     2.8617   2.8629   2.8662   2.8691   3.7063   3.7091   3.7218   3.7243
     3.7267   3.7277   4.5742   4.5753   4.6165   4.6178   5.2900   5.2930
     5.4258   5.4269   5.4501   5.4528   5.4637   5.4650   6.1536   6.1564
     6.2885   6.2914   7.1657   7.1671   7.4108   7.4132   8.0136   8.0149
     8.0773   8.0783   8.3968   8.3995   8.6589   8.6619   8.9966   8.9993
     9.5434   9.5450

          k =-0.5000-0.3000 0.1000 ( 15214 PWs)   bands (ev):

    -2.4434  -2.4404  -1.5443  -1.5412  -0.6507  -0.6477   0.2367   0.2378
     0.2398   0.2409   1.1166   1.1196   1.1215   1.1243   1.9908   1.9921
     2.8616   2.8630   2.8662   2.8692   3.7062   3.7093   3.7218   3.7249
     3.7263   3.7276   4.5741   4.5753   4.6165   4.6178   5.2899   5.2931
     5.4257   5.4269   5.4500   5.4530   5.4636   5.4650   6.1535   6.1566
     6.2884   6.2915   7.1657   7.1671   7.4107   7.4133   8.0135   8.0150
     8.0772   8.0784   8.3967   8.3997   8.6587   8.6620   8.9965   8.9994
     9.5433   9.5451

          k = 0.5000-0.3000-0.1000 ( 15214 PWs)   bands (ev):

    -2.4434  -2.4404  -1.5443  -1.5412  -0.6507  -0.6476   0.2363   0.2377
     0.2386   0.2426   1.1177   1.1197   1.1209   1.1237   1.9908   1.9921
     2.8618   2.8631   2.8661   2.8690   3.7062   3.7093   3.7217   3.7247
     3.7262   3.7278   4.5741   4.5752   4.6165   4.6179   5.2899   5.2931
     5.4258   5.4270   5.4500   5.4530   5.4635   5.4650   6.1535   6.1566
     6.2884   6.2915   7.1657   7.1671   7.4107   7.4133   8.0135   8.0150
     8.0772   8.0784   8.3967   8.3997   8.6587   8.6620   8.9965   8.9994
     9.5433   9.5451

          k =-0.1000-0.5000 0.3000 ( 15214 PWs)   bands (ev):

    -2.4423  -2.4416  -1.5431  -1.5424  -0.6495  -0.6488   0.2364   0.2374
     0.2397   0.2417   1.1189   1.1193   1.1212   1.1225   1.9913   1.9916
     2.8621   2.8625   2.8674   2.8679   3.7073   3.7081   3.7227   3.7237
     3.7267   3.7275   4.5745   4.5748   4.6170   4.6174   5.2911   5.2919
     5.4262   5.4266   5.4511   5.4518   5.4640   5.4645   6.1546   6.1554
     6.2896   6.2903   7.1662   7.1666   7.4117   7.4123   8.0141   8.0145
     8.0776   8.0780   8.3978   8.3985   8.6600   8.6608   8.9976   8.9983
     9.5440   9.5445

          k =-0.1000 0.5000-0.3000 ( 15214 PWs)   bands (ev):

    -2.4423  -2.4416  -1.5431  -1.5424  -0.6495  -0.6488   0.2374   0.2382
     0.2394   0.2401   1.1185   1.1196   1.1217   1.1222   1.9913   1.9916
     2.8624   2.8627   2.8671   2.8678   3.7074   3.7081   3.7230   3.7235
     3.7268   3.7271   4.5746   4.5749   4.6170   4.6173   5.2911   5.2919
     5.4262   5.4265   5.4511   5.4519   5.4640   5.4645   6.1546   6.1554
     6.2896   6.2904   7.1662   7.1666   7.4117   7.4123   8.0141   8.0145
     8.0776   8.0780   8.3978   8.3985   8.6600   8.6608   8.9976   8.9983
     9.5440   9.5445

          k = 0.3000-0.5000 0.1000 ( 15214 PWs)   bands (ev):

    -2.4423  -2.4416  -1.5431  -1.5424  -0.6495  -0.6488   0.2375   0.2380
     0.2391   0.2406   1.1180   1.1188   1.1216   1.1235   1.9913   1.9916
     2.8622   2.8626   2.8672   2.8680   3.7073   3.7081   3.7226   3.7237
     3.7268   3.7274   4.5746   4.5749   4.6169   4.6173   5.2911   5.2919
     5.4262   5.4265   5.4511   5.4519   5.4641   5.4645   6.1547   6.1554
     6.2896   6.2903   7.1662   7.1666   7.4117   7.4123   8.0141   8.0145
     8.0776   8.0780   8.3978   8.3985   8.6600   8.6608   8.9976   8.9983
     9.5440   9.5444

          k = 0.3000 0.5000-0.1000 ( 15214 PWs)   bands (ev):

    -2.4423  -2.4416  -1.5431  -1.5424  -0.6495  -0.6488   0.2370   0.2383
     0.2397   0.2402   1.1188   1.1196   1.1214   1.1221   1.9913   1.9916
     2.8623   2.8627   2.8671   2.8679   3.7074   3.7081   3.7230   3.7237
     3.7267   3.7270   4.5746   4.5749   4.6170   4.6173   5.2911   5.2919
     5.4262   5.4265   5.4511   5.4519   5.4640   5.4644   6.1547   6.1554
     6.2896   6.2903   7.1662   7.1666   7.4117   7.4123   8.0141   8.0145
     8.0776   8.0780   8.3978   8.3985   8.6600   8.6608   8.9976   8.9983
     9.5440   9.5444

          k =-0.5000 0.1000 0.3000 ( 15214 PWs)   bands (ev):

    -2.4434  -2.4404  -1.5442  -1.5412  -0.6507  -0.6477   0.2350   0.2381
     0.2397   0.2424   1.1180   1.1199   1.1211   1.1230   1.9908   1.9921
     2.8619   2.8631   2.8660   2.8690   3.7062   3.7093   3.7216   3.7244
     3.7265   3.7279   4.5741   4.5753   4.6165   4.6179   5.2899   5.2931
     5.4258   5.4270   5.4499   5.4529   5.4636   5.4650   6.1535   6.1566
     6.2884   6.2915   7.1657   7.1671   7.4107   7.4133   8.0135   8.0150
     8.0772   8.0784   8.3967   8.3997   8.6587   8.6620   8.9965   8.9994
     9.5434   9.5451

          k = 0.5000-0.1000 0.3000 ( 15214 PWs)   bands (ev):

    -2.4434  -2.4404  -1.5442  -1.5412  -0.6507  -0.6477   0.2363   0.2378
     0.2393   0.2418   1.1177   1.1194   1.1204   1.1245   1.9908   1.9921
     2.8618   2.8629   2.8661   2.8691   3.7062   3.7093   3.7218   3.7249
     3.7262   3.7276   4.5741   4.5753   4.6165   4.6178   5.2899   5.2931
     5.4258   5.4269   5.4500   5.4530   5.4636   5.4650   6.1535   6.1566
     6.2884   6.2915   7.1657   7.1671   7.4107   7.4133   8.0135   8.0150
     8.0772   8.0784   8.3967   8.3997   8.6587   8.6620   8.9965   8.9994
     9.5433   9.5451

          k =-0.5000 0.1000 0.5000 ( 15200 PWs)   bands (ev):

    -2.0854  -2.0824  -2.0805  -2.0779  -0.2971  -0.2941  -0.2922  -0.2896
     0.5885   0.5915   0.5934   0.5960   2.3362   2.3369   2.3385   2.3408
     2.3417   2.3420   2.3432   2.3453   4.0568   4.0575   4.0592   4.0614
     4.0624   4.0626   4.0639   4.0659   4.9568   4.9577   4.9591   4.9614
     4.9622   4.9629   4.9639   4.9660   5.6186   5.6218   5.6240   5.6266
     6.6119   6.6130   6.6146   6.6155   7.9035   7.9062   7.9074   7.9097
     8.3411   8.3426   8.3437   8.3450   9.1845   9.1860   9.1871   9.1884
     9.8178   9.8193

          k =-0.5000 0.5000 0.1000 ( 15200 PWs)   bands (ev):

    -2.0839  -2.0826  -2.0800  -2.0798  -0.2955  -0.2943  -0.2917  -0.2914
     0.5900   0.5913   0.5939   0.5942   2.3367   2.3380   2.3387   2.3401
     2.3409   2.3425   2.3435   2.3440   4.0573   4.0588   4.0592   4.0609
     4.0615   4.0630   4.0643   4.0647   4.9576   4.9587   4.9596   4.9607
     4.9616   4.9633   4.9639   4.9647   5.6203   5.6216   5.6244   5.6247
     6.6127   6.6133   6.6144   6.6146   7.9047   7.9057   7.9080   7.9083
     8.3419   8.3426   8.3439   8.3440   9.1853   9.1860   9.1873   9.1874
     9.8177   9.8193

          k =-0.3000-0.3000 0.3000 ( 15225 PWs)   bands (ev):

    -2.6224  -1.7240  -1.7223  -1.7200  -0.8293  -0.8276  -0.8253   0.0620
     0.9416   0.9434   0.9457   1.8179   1.8207   1.8210   1.8222   1.8236
     1.8252   2.6933   2.6938   2.6942   3.5350   3.5355   3.5359   4.3893
     4.3922   4.3926   4.3938   4.3952   4.3968   4.4061   4.4078   4.4102
     5.2788   5.2806   5.2830   5.2975   5.2980   5.2985   6.9572   6.9586
     6.9593   6.9601   6.9609   6.9620   7.8104   7.8116   7.8124   7.8132
     7.8139   7.8151   7.8516   8.8270   8.8277   8.8284   9.5313   9.5317
     9.5320   9.7456

          k =-0.3000 0.3000-0.3000 ( 15225 PWs)   bands (ev):

    -2.6224  -1.7245  -1.7221  -1.7197  -0.8298  -0.8274  -0.8250   0.0620
     0.9411   0.9435   0.9460   1.8189   1.8194   1.8207   1.8218   1.8242
     1.8258   2.6929   2.6938   2.6946   3.5346   3.5355   3.5363   4.3904
     4.3909   4.3922   4.3933   4.3958   4.3974   4.4056   4.4080   4.4105
     5.2783   5.2808   5.2833   5.2971   5.2980   5.2989   6.9572   6.9580
     6.9587   6.9606   6.9614   6.9622   7.8103   7.8111   7.8118   7.8137
     7.8144   7.8152   7.8516   8.8264   8.8277   8.8289   9.5311   9.5316
     9.5322   9.7445

          k = 0.3000-0.3000-0.3000 ( 15225 PWs)   bands (ev):

    -2.6224  -1.7242  -1.7227  -1.7195  -0.8295  -0.8280  -0.8247   0.0620
     0.9415   0.9430   0.9462   1.8186   1.8196   1.8211   1.8221   1.8234
     1.8257   2.6928   2.6938   2.6947   3.5346   3.5355   3.5364   4.3901
     4.3911   4.3926   4.3937   4.3950   4.3973   4.4059   4.4075   4.4108
     5.2786   5.2802   5.2835   5.2970   5.2980   5.2990   6.9569   6.9582
     6.9588   6.9606   6.9610   6.9625   7.8099   7.8114   7.8119   7.8137
     7.8141   7.8155   7.8516   8.8263   8.8277   8.8290   9.5310   9.5316
     9.5323   9.7438

          k =-0.3000 0.3000 0.5000 ( 15196 PWs)   bands (ev):

    -2.2630  -2.2602  -1.3660  -1.3642  -1.3632  -1.3609  -0.4724  -0.4696
     1.2930   1.2949   1.2958   1.2982   2.1649   2.1663   2.1698   2.1709
     2.1725   2.1738   3.0344   3.0356   3.0363   3.0375   3.8773   3.8788
     3.8803   3.8816   3.8894   3.8904   4.7221   4.7240   4.7250   4.7273
     4.7925   4.7952   5.6406   5.6419   5.6426   5.6439   6.4838   6.4850
     6.4856   6.4867   7.3008   7.3019   7.3037   7.3050   8.1099   8.1111
     8.1119   8.1130   8.9819   8.9834   8.9840   8.9854   9.0243   9.0257
     9.2688   9.2711

          k =-0.5000-0.3000 0.3000 ( 15196 PWs)   bands (ev):

    -2.2632  -2.2601  -1.3666  -1.3640  -1.3626  -1.3611  -0.4725  -0.4695
     1.2924   1.2951   1.2964   1.2980   2.1652   2.1661   2.1699   2.1705
     2.1726   2.1739   3.0342   3.0356   3.0364   3.0377   3.8778   3.8781
     3.8803   3.8819   3.8892   3.8905   4.7215   4.7242   4.7255   4.7271
     4.7923   4.7953   5.6405   5.6418   5.6427   5.6440   6.4841   6.4848
     6.4851   6.4869   7.3004   7.3020   7.3041   7.3050   8.1106   8.1109
     8.1113   8.1130   8.9817   8.9834   8.9840   8.9856   9.0242   9.0258
     9.2699   9.2710

          k = 0.5000-0.3000-0.3000 ( 15196 PWs)   bands (ev):

    -2.2632  -2.2601  -1.3669  -1.3635  -1.3631  -1.3608  -0.4725  -0.4695
     1.2921   1.2955   1.2960   1.2983   2.1653   2.1660   2.1694   2.1709
     2.1729   2.1737   3.0336   3.0351   3.0369   3.0381   3.8774   3.8785
     3.8804   3.8817   3.8891   3.8906   4.7212   4.7246   4.7251   4.7275
     4.7923   4.7953   5.6399   5.6414   5.6433   5.6445   6.4838   6.4850
     6.4856   6.4866   7.3006   7.3018   7.3033   7.3058   8.1099   8.1112
     8.1117   8.1129   8.9811   8.9829   8.9846   8.9860   9.0243   9.0258
     9.2688   9.2712

          k =-0.3000-0.5000 0.3000 ( 15196 PWs)   bands (ev):

    -2.2620  -2.2613  -1.3656  -1.3651  -1.3627  -1.3609  -0.4714  -0.4706
     1.2935   1.2939   1.2964   1.2982   2.1653   2.1660   2.1711   2.1713
     2.1720   2.1725   3.0342   3.0343   3.0374   3.0379   3.8792   3.8792
     3.8796   3.8800   3.8897   3.8900   4.7226   4.7230   4.7255   4.7273
     4.7935   4.7942   5.6404   5.6406   5.6438   5.6442   6.4850   6.4851
     6.4854   6.4855   7.3011   7.3026   7.3036   7.3041   8.1112   8.1113
     8.1116   8.1117   8.9818   8.9820   8.9851   8.9858   9.0248   9.0252
     9.2705   9.2707

          k =-0.3000 0.5000-0.3000 ( 15196 PWs)   bands (ev):

    -2.2620  -2.2613  -1.3659  -1.3652  -1.3621  -1.3610  -0.4714  -0.4706
     1.2931   1.2938   1.2969   1.2981   2.1652   2.1658   2.1711   2.1715
     2.1718   2.1726   3.0338   3.0341   3.0378   3.0381   3.8789   3.8791
     3.8793   3.8806   3.8898   3.8900   4.7223   4.7229   4.7260   4.7272
     4.7935   4.7942   5.6400   5.6404   5.6442   5.6445   6.4846   6.4850
     6.4851   6.4862   7.3015   7.3022   7.3034   7.3044   8.1109   8.1111
     8.1114   8.1123   8.9814   8.9818   8.9855   8.9860   9.0248   9.0252
     9.2703   9.2710

          k =-0.5000 0.3000 0.5000 ( 15212 PWs)   bands (ev):

    -1.9056  -1.9026  -1.9007  -1.8981  -1.0098  -1.0067  -1.0048  -1.0022
     1.6427   1.6457   1.6477   1.6503   2.5104   2.5111   2.5127   2.5150
     2.5159   2.5162   2.5174   2.5195   3.3770   3.3776   3.3793   3.3815
     3.3825   3.3827   3.3840   3.3861   4.2178   4.2209   4.2230   4.2256
     5.9696   5.9704   5.9719   5.9743   5.9751   5.9756   5.9768   5.9789
     6.8079   6.8093   6.8105   6.8116   7.6630   7.6645   7.6656   7.6668
     8.4678   8.4686   8.4702   8.4728   8.4737   8.4742   8.4754   8.4778
     9.5921   9.5945

          k =-0.5000 0.5000 0.3000 ( 15212 PWs)   bands (ev):

    -1.9040  -1.9028  -1.9002  -1.8999  -1.0082  -1.0070  -1.0043  -1.0041
     1.6443   1.6455   1.6481   1.6484   2.5109   2.5122   2.5129   2.5143
     2.5151   2.5167   2.5177   2.5182   3.3775   3.3788   3.3794   3.3809
     3.3816   3.3833   3.3843   3.3849   4.2194   4.2207   4.2234   4.2237
     5.9701   5.9714   5.9722   5.9736   5.9744   5.9761   5.9769   5.9776
     6.8087   6.8093   6.8106   6.8107   7.6638   7.6645   7.6658   7.6659
     8.4683   8.4698   8.4705   8.4721   8.4729   8.4749   8.4758   8.4764
     9.5912   9.5940

     the Fermi energy is     8.0131 ev

!    total energy              =   -1264.09147680 Ry
     Harris-Foulkes estimate   =   -1264.09147649 Ry
     estimated scf accuracy    <       0.00000068 Ry

     total all-electron energy =    -15540.660499 Ry

     The total energy is the sum of the following terms:

     one-electron contribution =     101.23222862 Ry
     hartree contribution      =       0.19359747 Ry
     xc contribution           =     -82.90975525 Ry
     ewald contribution        =    -172.93188273 Ry
     one-center paw contrib.   =   -1109.67466304 Ry
     smearing contrib. (-TS)   =      -0.00100187 Ry

     convergence has been achieved in   8 iterations

     Forces acting on atoms (cartesian axes, Ry/au):

     atom    1 type  1   force =    -0.00007769   -0.00000311    0.00002244
     atom    2 type  1   force =    -0.00010537    0.00023283    0.00006161
     atom    3 type  1   force =     0.00023357    0.00000348   -0.00050195
     atom    4 type  1   force =     0.00001601   -0.00023192   -0.00035860
     atom    5 type  1   force =    -0.00044107   -0.00036445    0.00032394
     atom    6 type  1   force =    -0.00020353    0.00038999   -0.00003302
     atom    7 type  1   force =    -0.00019138   -0.00050244    0.00032463
     atom    8 type  1   force =    -0.00002663   -0.00005416   -0.00028593
     atom    9 type  1   force =    -0.00004746   -0.00002357    0.00008377
     atom   10 type  1   force =    -0.00020118   -0.00012217   -0.00069121
     atom   11 type  1   force =    -0.00030057   -0.00027496   -0.00036810
     atom   12 type  1   force =    -0.00017625   -0.00000479   -0.00004800
     atom   13 type  1   force =    -0.00014405   -0.00033404   -0.00004424
     atom   14 type  1   force =    -0.00005537    0.00012933    0.00043592
     atom   15 type  1   force =    -0.00053155    0.00036801    0.00053705
     atom   16 type  1   force =     0.00064682    0.00049750    0.00019660
     atom   17 type  1   force =    -0.00035252    0.00007572    0.00005252
     atom   18 type  1   force =     0.00021392   -0.00011730    0.00036208
     atom   19 type  1   force =     0.00059963    0.00021224   -0.00013543
     atom   20 type  1   force =     0.00006130    0.00020774    0.00005442
     atom   21 type  1   force =     0.00015930   -0.00056671    0.00011009
     atom   22 type  1   force =    -0.00007050    0.00060419    0.00022936
     atom   23 type  1   force =     0.00013360   -0.00006018   -0.00011795
     atom   24 type  1   force =     0.00013801    0.00009652    0.00000387
     atom   25 type  1   force =     0.00010602   -0.00016052    0.00030014
     atom   26 type  1   force =     0.00034023   -0.00025772   -0.00025460
     atom   27 type  1   force =    -0.00014871    0.00013605    0.00006604
     atom   28 type  1   force =    -0.00009106    0.00025307   -0.00011163
     atom   29 type  1   force =     0.00084427   -0.00033764   -0.00008267
     atom   30 type  1   force =    -0.00022521    0.00004786    0.00019393
     atom   31 type  1   force =    -0.00004667   -0.00009332   -0.00030901
     atom   32 type  1   force =    -0.00005593    0.00025448   -0.00001606

     Total force =     0.002747     Total SCF correction =     0.000382
     SCF correction compared to forces is large: reduce conv_thr to get better values


     Computing stress (Cartesian axis) and pressure

          total   stress  (Ry/bohr**3)                   (kbar)     P=   -1.83
  -0.00001243  -0.00000000   0.00000000         -1.83     -0.00      0.00
  -0.00000000  -0.00001243  -0.00000000         -0.00     -1.83     -0.00
   0.00000000  -0.00000000  -0.00001243          0.00     -0.00     -1.83


     Writing output data file fe_scf_fcc_2.save/
 
     init_run     :      7.00s CPU      7.25s WALL (       1 calls)
     electrons    :     93.42s CPU     95.92s WALL (       1 calls)
     forces       :      1.59s CPU      1.65s WALL (       1 calls)
     stress       :      5.78s CPU      5.80s WALL (       1 calls)

     Called by init_run:
     wfcinit      :      6.80s CPU      7.00s WALL (       1 calls)
     potinit      :      0.11s CPU      0.11s WALL (       1 calls)
     hinit0       :      0.06s CPU      0.09s WALL (       1 calls)

     Called by electrons:
     c_bands      :     81.62s CPU     83.67s WALL (       9 calls)
     sum_band     :     11.11s CPU     11.51s WALL (       9 calls)
     v_of_rho     :      0.08s CPU      0.09s WALL (       9 calls)
     newd         :      0.06s CPU      0.08s WALL (       9 calls)
     PAW_pot      :      0.59s CPU      0.60s WALL (       9 calls)
     mix_rho      :      0.02s CPU      0.02s WALL (       9 calls)

     Called by c_bands:
     init_us_2    :      2.06s CPU      2.10s WALL (    1323 calls)
     cegterg      :     77.01s CPU     79.01s WALL (     567 calls)

     Called by sum_band:
     sum_band:bec :      0.07s CPU      0.07s WALL (     567 calls)
     addusdens    :      0.05s CPU      0.07s WALL (       9 calls)

     Called by *egterg:
     h_psi        :     55.41s CPU     57.20s WALL (    1986 calls)
     s_psi        :      5.37s CPU      5.39s WALL (    1986 calls)
     g_psi        :      0.31s CPU      0.32s WALL (    1356 calls)
     cdiaghg      :     11.36s CPU     11.39s WALL (    1860 calls)

     Called by h_psi:
     h_psi:pot    :     55.15s CPU     56.94s WALL (    1986 calls)
     h_psi:calbec :      5.77s CPU      6.20s WALL (    1986 calls)
     vloc_psi     :     44.06s CPU     45.39s WALL (    1986 calls)
     add_vuspsi   :      5.30s CPU      5.34s WALL (    1986 calls)

     General routines
     calbec       :      9.17s CPU      9.80s WALL (    2868 calls)
     fft          :      0.10s CPU      0.14s WALL (     126 calls)
     ffts         :      0.01s CPU      0.01s WALL (       9 calls)
     fftw         :     47.35s CPU     48.74s WALL (  223380 calls)
 
     Parallel routines
     fft_scatt_xy :      8.34s CPU      8.58s WALL (  223515 calls)
     fft_scatt_yz :     22.72s CPU     23.45s WALL (  223515 calls)
 
     PWSCF        :  1m53.47s CPU     1m57.74s WALL

 
   This run was terminated on:   7:57:32   9Mar2020            

=------------------------------------------------------------------------------=
   JOB DONE.
=------------------------------------------------------------------------------=
