
     Program PWSCF v.6.3 starts on  9Mar2020 at  8:50:57 

     This program is part of the open-source Quantum ESPRESSO suite
     for quantum simulation of materials; please cite
         "P. Giannozzi et al., J. Phys.:Condens. Matter 21 395502 (2009);
         "P. Giannozzi et al., J. Phys.:Condens. Matter 29 465901 (2017);
          URL http://www.quantum-espresso.org", 
     in publications or presentations arising from this work. More details at
     http://www.quantum-espresso.org/quote

     Parallel version (MPI & OpenMP), running on      20 processor cores
     Number of MPI processes:                20
     Threads/MPI process:                     1

     MPI processes distributed on     1 nodes
     R & G space division:  proc/nbgrp/npool/nimage =      20
     Reading input from wd/kpoints/file_000120.in
Warning: card &IONS ignored
Warning: card ION_DYNAMICS = 'BFGS', ignored
Warning: card / ignored
Warning: card &CELL ignored
Warning: card CELL_DYNAMICS = 'BFGS', ignored
Warning: card CELL_FACTOR = 2.0, ignored
Warning: card PRESS = 0.0, ignored
Warning: card / ignored

     Current dimensions of program PWSCF are:
     Max number of different atomic species (ntypx) = 10
     Max number of k-points (npk) =  40000
     Max angular momentum in pseudopotentials (lmaxx) =  3
     Message from routine read_upf::
     Pseudo file /rds/homes/b/bxp912/pp/Al.pbe-nl-kjpaw_psl.1.0.0.UPF has been successfully fixed on the fly.
To avoid this message in the future you can permanently fix 
 your pseudo files following instructions given in: 
https://gitlab.com/QEF/q-e/blob/master/upftools/how_to_fix_upf.md
               file Al.pbe-nl-kjpaw_psl.1.0.0.UPF: wavefunction(s)  3S 3P renormalized

     Subspace diagonalization in iterative solution of the eigenvalue problem:
     a serial algorithm will be used

 
     Parallelization info
     --------------------
     sticks:   dense  smooth     PW     G-vecs:    dense   smooth      PW
     Min         148     148     41                 6092     6092     891
     Max         149     149     42                 6097     6097     894
     Sum        2965    2965    829               121865   121865   17845
 


     bravais-lattice index     =            0
     lattice parameter (alat)  =      15.2712  a.u.
     unit-cell volume          =    3561.3897 (a.u.)^3
     number of atoms/cell      =           32
     number of atomic types    =            1
     number of electrons       =        96.00
     number of Kohn-Sham states=           58
     kinetic-energy cutoff     =      40.0000  Ry
     charge density cutoff     =     160.0000  Ry
     convergence threshold     =      1.0E-06
     mixing beta               =       0.1000
     number of iterations used =           10  TF        mixing
     Exchange-correlation      = SLA PW PBX PBC ( 1  4  3  4 0 0)

     celldm(1)=  15.271200  celldm(2)=   0.000000  celldm(3)=   0.000000
     celldm(4)=   0.000000  celldm(5)=   0.000000  celldm(6)=   0.000000

     crystal axes: (cart. coord. in units of alat)
               a(1) = (   1.000000   0.000000   0.000000 )  
               a(2) = (   0.000000   1.000000   0.000000 )  
               a(3) = (   0.000000   0.000000   1.000000 )  

     reciprocal axes: (cart. coord. in units 2 pi/alat)
               b(1) = (  1.000000  0.000000  0.000000 )  
               b(2) = (  0.000000  1.000000  0.000000 )  
               b(3) = (  0.000000  0.000000  1.000000 )  


     PseudoPot. # 1 for Al read from file:
     /rds/homes/b/bxp912/pp/Al.pbe-nl-kjpaw_psl.1.0.0.UPF
     MD5 check sum: 339dbea23cf3ab9a065ad45c0f9085d7
     Pseudo is Projector augmented-wave + core cor, Zval =  3.0
     Generated using "atomic" code by A. Dal Corso v.5.1
     Shape of augmentation charge: PSQ
     Using radial grid of 1135 points,  4 beta functions with: 
                l(1) =   0
                l(2) =   0
                l(3) =   1
                l(4) =   1
     Q(r) pseudized with 0 coefficients 


     atomic species   valence    mass     pseudopotential
        Al             3.00    26.98200     Al( 1.00)

     No symmetry found



   Cartesian axes

     site n.     atom                  positions (alat units)
         1           Al  tau(   1) = (  -0.0000327   0.0000095   0.0000680  )
         2           Al  tau(   2) = (   0.2500796   0.2498100   0.0000703  )
         3           Al  tau(   3) = (   0.2499071   0.0000305   0.2502955  )
         4           Al  tau(   4) = (  -0.0000200   0.2502187   0.2501837  )
         5           Al  tau(   5) = (   0.0002558   0.0002521   0.4998810  )
         6           Al  tau(   6) = (   0.2501194   0.2498326   0.5000036  )
         7           Al  tau(   7) = (   0.2500278   0.0001539   0.7498880  )
         8           Al  tau(   8) = (   0.0000549   0.2501136   0.7502101  )
         9           Al  tau(   9) = (   0.0002375   0.5001078  -0.0000154  )
        10           Al  tau(  10) = (   0.2501396   0.7501762   0.0004054  )
        11           Al  tau(  11) = (   0.2501891   0.5001088   0.2502510  )
        12           Al  tau(  12) = (   0.0000383   0.7500455   0.2500253  )
        13           Al  tau(  13) = (   0.0001102   0.5001562   0.5000990  )
        14           Al  tau(  14) = (   0.2499640   0.7500632   0.4998706  )
        15           Al  tau(  15) = (   0.2503366   0.4997894   0.7496960  )
        16           Al  tau(  16) = (  -0.0003280   0.7497055   0.7499931  )
        17           Al  tau(  17) = (   0.5002037  -0.0001004  -0.0000387  )
        18           Al  tau(  18) = (   0.7499123   0.2500941  -0.0002332  )
        19           Al  tau(  19) = (   0.7496354  -0.0000959   0.2500771  )
        20           Al  tau(  20) = (   0.4999751   0.2499614   0.2498317  )
        21           Al  tau(  21) = (   0.4999211   0.0002929   0.4999726  )
        22           Al  tau(  22) = (   0.7500684   0.2496958   0.4999523  )
        23           Al  tau(  23) = (   0.7500357  -0.0000687   0.7500257  )
        24           Al  tau(  24) = (   0.5000114   0.2498864   0.7499948  )
        25           Al  tau(  25) = (   0.4998526   0.5001156  -0.0002192  )
        26           Al  tau(  26) = (   0.7497723   0.7500978   0.0002736  )
        27           Al  tau(  27) = (   0.7501007   0.4998018   0.2499462  )
        28           Al  tau(  28) = (   0.5000878   0.7497908   0.2502093  )
        29           Al  tau(  29) = (   0.4996761   0.5001027   0.5000404  )
        30           Al  tau(  30) = (   0.7501658   0.7499872   0.4998547  )
        31           Al  tau(  31) = (   0.7499472   0.5000095   0.7501393  )
        32           Al  tau(  32) = (   0.5000142   0.7499486   0.7499177  )

     number of k points=   172  Marzari-Vanderbilt smearing, width (Ry)=  0.0300

     Number of k-points >= 100: set verbosity='high' to print them.

     Dense  grid:   121865 G-vectors     FFT dimensions: (  64,  64,  64)

     Estimated max dynamical RAM per process >     136.88 MB

     Estimated total dynamical RAM >       2.67 GB

     Initial potential from superposition of free atoms

     starting charge   95.92671, renormalised to   96.00000
     Starting wfcs are  128 randomized atomic wfcs
     Checking if some PAW data can be deallocated... 

     total cpu time spent up to now is       19.2 secs

     Self-consistent Calculation

     iteration #  1     ecut=    40.00 Ry     beta= 0.10
     Davidson diagonalization with overlap
     ethr =  1.00E-02,  avg # of iterations =  3.0

     Threshold (ethr) on eigenvalues was too large:
     Diagonalizing with lowered threshold

     Davidson diagonalization with overlap
     ethr =  1.91E-04,  avg # of iterations =  4.5

     total cpu time spent up to now is       89.8 secs

     total energy              =   -1264.12810197 Ry
     Harris-Foulkes estimate   =   -1264.13433578 Ry
     estimated scf accuracy    <       0.17951198 Ry

     iteration #  2     ecut=    40.00 Ry     beta= 0.10
     Davidson diagonalization with overlap
     ethr =  1.87E-04,  avg # of iterations =  1.2

     total cpu time spent up to now is      111.0 secs

     total energy              =   -1264.08084602 Ry
     Harris-Foulkes estimate   =   -1264.12889191 Ry
     estimated scf accuracy    <       0.15589282 Ry

     iteration #  3     ecut=    40.00 Ry     beta= 0.10
     Davidson diagonalization with overlap
     ethr =  1.62E-04,  avg # of iterations =  1.0

     total cpu time spent up to now is      131.8 secs

     total energy              =   -1264.08375929 Ry
     Harris-Foulkes estimate   =   -1264.08386918 Ry
     estimated scf accuracy    <       0.00062265 Ry

     iteration #  4     ecut=    40.00 Ry     beta= 0.10
     Davidson diagonalization with overlap
     c_bands:  4 eigenvalues not converged
     c_bands:  1 eigenvalues not converged
     c_bands:  1 eigenvalues not converged
     c_bands:  1 eigenvalues not converged
     c_bands:  1 eigenvalues not converged
     c_bands:  1 eigenvalues not converged
     c_bands:  1 eigenvalues not converged
     c_bands:  1 eigenvalues not converged
     c_bands:  1 eigenvalues not converged
     c_bands:  1 eigenvalues not converged
     c_bands:  1 eigenvalues not converged
     c_bands:  1 eigenvalues not converged
     c_bands:  1 eigenvalues not converged
     c_bands:  1 eigenvalues not converged
     c_bands:  1 eigenvalues not converged
     c_bands:  1 eigenvalues not converged
     ethr =  6.49E-07,  avg # of iterations =  8.6

     total cpu time spent up to now is      182.9 secs

     total energy              =   -1264.08436663 Ry
     Harris-Foulkes estimate   =   -1264.08453013 Ry
     estimated scf accuracy    <       0.00037338 Ry

     iteration #  5     ecut=    40.00 Ry     beta= 0.10
     Davidson diagonalization with overlap
     ethr =  3.89E-07,  avg # of iterations =  1.5

     total cpu time spent up to now is      204.3 secs

     total energy              =   -1264.08414256 Ry
     Harris-Foulkes estimate   =   -1264.08437724 Ry
     estimated scf accuracy    <       0.00024487 Ry

     iteration #  6     ecut=    40.00 Ry     beta= 0.10
     Davidson diagonalization with overlap
     ethr =  2.55E-07,  avg # of iterations =  2.3

     total cpu time spent up to now is      234.7 secs

     total energy              =   -1264.08421095 Ry
     Harris-Foulkes estimate   =   -1264.08420938 Ry
     estimated scf accuracy    <       0.00000996 Ry

     iteration #  7     ecut=    40.00 Ry     beta= 0.10
     Davidson diagonalization with overlap
     ethr =  1.04E-08,  avg # of iterations =  4.1

     total cpu time spent up to now is      263.9 secs

     total energy              =   -1264.08420567 Ry
     Harris-Foulkes estimate   =   -1264.08421194 Ry
     estimated scf accuracy    <       0.00000537 Ry

     iteration #  8     ecut=    40.00 Ry     beta= 0.10
     Davidson diagonalization with overlap
     ethr =  5.59E-09,  avg # of iterations =  2.4

     total cpu time spent up to now is      293.5 secs

     End of self-consistent calculation

     Number of k-points >= 100: set verbosity='high' to print the bands.

     the Fermi energy is     7.9280 ev

!    total energy              =   -1264.08420690 Ry
     Harris-Foulkes estimate   =   -1264.08420643 Ry
     estimated scf accuracy    <       0.00000089 Ry

     total all-electron energy =    -15540.653229 Ry

     The total energy is the sum of the following terms:

     one-electron contribution =     101.25124667 Ry
     hartree contribution      =       0.19748018 Ry
     xc contribution           =     -82.91472051 Ry
     ewald contribution        =    -172.93188273 Ry
     one-center paw contrib.   =   -1109.67909716 Ry
     smearing contrib. (-TS)   =      -0.00723334 Ry

     convergence has been achieved in   8 iterations

     Forces acting on atoms (cartesian axes, Ry/au):

     atom    1 type  1   force =    -0.00001862   -0.00001756    0.00000553
     atom    2 type  1   force =    -0.00011420    0.00023045    0.00007412
     atom    3 type  1   force =     0.00021526    0.00001067   -0.00052015
     atom    4 type  1   force =     0.00000502   -0.00020626   -0.00034830
     atom    5 type  1   force =    -0.00044414   -0.00035457    0.00033400
     atom    6 type  1   force =    -0.00018348    0.00037478   -0.00003966
     atom    7 type  1   force =    -0.00019440   -0.00052498    0.00033970
     atom    8 type  1   force =    -0.00002329   -0.00006037   -0.00027039
     atom    9 type  1   force =    -0.00002836   -0.00003415    0.00008950
     atom   10 type  1   force =    -0.00021487   -0.00010007   -0.00068340
     atom   11 type  1   force =    -0.00026958   -0.00028761   -0.00038758
     atom   12 type  1   force =    -0.00016621    0.00000385   -0.00005318
     atom   13 type  1   force =    -0.00017382   -0.00032351   -0.00004267
     atom   14 type  1   force =    -0.00003304    0.00012774    0.00046797
     atom   15 type  1   force =    -0.00050970    0.00038641    0.00053148
     atom   16 type  1   force =     0.00064856    0.00050797    0.00018278
     atom   17 type  1   force =    -0.00036586    0.00007156    0.00005045
     atom   18 type  1   force =     0.00020296   -0.00010267    0.00038701
     atom   19 type  1   force =     0.00055951    0.00021816   -0.00010110
     atom   20 type  1   force =     0.00008743    0.00021862    0.00006561
     atom   21 type  1   force =     0.00018607   -0.00055273    0.00010965
     atom   22 type  1   force =    -0.00007541    0.00059953    0.00018446
     atom   23 type  1   force =     0.00012870   -0.00007291   -0.00014013
     atom   24 type  1   force =     0.00013143    0.00009705   -0.00001575
     atom   25 type  1   force =     0.00007869   -0.00017511    0.00031066
     atom   26 type  1   force =     0.00033157   -0.00022800   -0.00025524
     atom   27 type  1   force =    -0.00016166    0.00008998    0.00010458
     atom   28 type  1   force =    -0.00008581    0.00024096   -0.00010625
     atom   29 type  1   force =     0.00084013   -0.00032393   -0.00009661
     atom   30 type  1   force =    -0.00023416    0.00003877    0.00020402
     atom   31 type  1   force =    -0.00003147   -0.00009914   -0.00034845
     atom   32 type  1   force =    -0.00008725    0.00024707   -0.00003266

     Total force =     0.002741     Total SCF correction =     0.000424
     SCF correction compared to forces is large: reduce conv_thr to get better values


     Computing stress (Cartesian axis) and pressure

          total   stress  (Ry/bohr**3)                   (kbar)     P=   -0.75
  -0.00000509  -0.00000000  -0.00000000         -0.75     -0.00     -0.00
  -0.00000000  -0.00000509   0.00000000         -0.00     -0.75      0.00
  -0.00000000   0.00000000  -0.00000509         -0.00      0.00     -0.75


     Writing output data file fe_scf_fcc_2.save/
 
     init_run     :     17.94s CPU     18.58s WALL (       1 calls)
     electrons    :    267.68s CPU    274.34s WALL (       1 calls)
     forces       :      3.88s CPU      4.13s WALL (       1 calls)
     stress       :     15.43s CPU     15.50s WALL (       1 calls)

     Called by init_run:
     wfcinit      :     17.77s CPU     18.36s WALL (       1 calls)
     potinit      :      0.08s CPU      0.09s WALL (       1 calls)
     hinit0       :      0.05s CPU      0.08s WALL (       1 calls)

     Called by electrons:
     c_bands      :    236.90s CPU    242.47s WALL (       9 calls)
     sum_band     :     30.11s CPU     31.14s WALL (       9 calls)
     v_of_rho     :      0.08s CPU      0.09s WALL (       9 calls)
     newd         :      0.06s CPU      0.08s WALL (       9 calls)
     PAW_pot      :      0.57s CPU      0.58s WALL (       9 calls)
     mix_rho      :      0.02s CPU      0.02s WALL (       9 calls)

     Called by c_bands:
     init_us_2    :      5.46s CPU      5.55s WALL (    3612 calls)
     cegterg      :    224.33s CPU    229.67s WALL (    1548 calls)

     Called by sum_band:
     sum_band:bec :      0.18s CPU      0.18s WALL (    1548 calls)
     addusdens    :      0.05s CPU      0.07s WALL (       9 calls)

     Called by *egterg:
     h_psi        :    154.68s CPU    159.50s WALL (    6628 calls)
     s_psi        :     15.60s CPU     15.66s WALL (    6628 calls)
     g_psi        :      0.88s CPU      0.89s WALL (    4908 calls)
     cdiaghg      :     37.87s CPU     37.98s WALL (    6284 calls)

     Called by h_psi:
     h_psi:pot    :    153.96s CPU    158.77s WALL (    6628 calls)
     h_psi:calbec :     16.89s CPU     18.02s WALL (    6628 calls)
     vloc_psi     :    121.55s CPU    125.16s WALL (    6628 calls)
     add_vuspsi   :     15.47s CPU     15.55s WALL (    6628 calls)

     General routines
     calbec       :     25.48s CPU     27.25s WALL (    9036 calls)
     fft          :      0.10s CPU      0.14s WALL (     126 calls)
     ffts         :      0.01s CPU      0.01s WALL (       9 calls)
     fftw         :    130.29s CPU    134.02s WALL (  617400 calls)
 
     Parallel routines
     fft_scatt_xy :     22.95s CPU     23.63s WALL (  617535 calls)
     fft_scatt_yz :     61.97s CPU     63.91s WALL (  617535 calls)
 
     PWSCF        :  5m19.32s CPU     5m30.85s WALL

 
   This run was terminated on:   8:56:27   9Mar2020            

=------------------------------------------------------------------------------=
   JOB DONE.
=------------------------------------------------------------------------------=
