--------------------------------------------------------------------------
WARNING: There was an error initializing an OpenFabrics device.

  Local host:   bear-pg0211u40b
  Local device: mlx5_0
--------------------------------------------------------------------------

     Program PWSCF v.6.3 starts on 12Mar2020 at  1: 1:54 

     This program is part of the open-source Quantum ESPRESSO suite
     for quantum simulation of materials; please cite
         "P. Giannozzi et al., J. Phys.:Condens. Matter 21 395502 (2009);
         "P. Giannozzi et al., J. Phys.:Condens. Matter 29 465901 (2017);
          URL http://www.quantum-espresso.org", 
     in publications or presentations arising from this work. More details at
     http://www.quantum-espresso.org/quote

     Parallel version (MPI & OpenMP), running on      20 processor cores
     Number of MPI processes:                20
     Threads/MPI process:                     1

     MPI processes distributed on     1 nodes
     R & G space division:  proc/nbgrp/npool/nimage =      20
     Reading input from wd/ecut/file_000048.in
Warning: card &IONS ignored
Warning: card ION_DYNAMICS = 'BFGS', ignored
Warning: card / ignored
Warning: card &CELL ignored
Warning: card CELL_DYNAMICS = 'BFGS', ignored
Warning: card CELL_FACTOR = 2.0, ignored
Warning: card PRESS = 0.0, ignored
Warning: card / ignored

     Current dimensions of program PWSCF are:
     Max number of different atomic species (ntypx) = 10
     Max number of k-points (npk) =  40000
     Max angular momentum in pseudopotentials (lmaxx) =  3
     Message from routine read_upf::
     Pseudo file /rds/homes/b/bxp912/pp/Al.pbe-nl-kjpaw_psl.1.0.0.UPF has been successfully fixed on the fly.
To avoid this message in the future you can permanently fix 
 your pseudo files following instructions given in: 
https://gitlab.com/QEF/q-e/blob/master/upftools/how_to_fix_upf.md
               file Al.pbe-nl-kjpaw_psl.1.0.0.UPF: wavefunction(s)  3S 3P renormalized

     Subspace diagonalization in iterative solution of the eigenvalue problem:
     a serial algorithm will be used

 
     Parallelization info
     --------------------
     sticks:   dense  smooth     PW     G-vecs:    dense   smooth      PW
     Min          97      97     32                 3229     3229     624
     Max          98      98     33                 3232     3232     629
     Sum        1941    1941    657                64589    64589   12533
 


     bravais-lattice index     =            0
     lattice parameter (alat)  =      15.2712  a.u.
     unit-cell volume          =    3561.3897 (a.u.)^3
     number of atoms/cell      =           32
     number of atomic types    =            1
     number of electrons       =        96.00
     number of Kohn-Sham states=           58
     kinetic-energy cutoff     =      31.0000  Ry
     charge density cutoff     =     105.0000  Ry
     convergence threshold     =      1.0E-06
     mixing beta               =       0.1000
     number of iterations used =           10  TF        mixing
     Exchange-correlation      = SLA PW PBX PBC ( 1  4  3  4 0 0)

     celldm(1)=  15.271200  celldm(2)=   0.000000  celldm(3)=   0.000000
     celldm(4)=   0.000000  celldm(5)=   0.000000  celldm(6)=   0.000000

     crystal axes: (cart. coord. in units of alat)
               a(1) = (   1.000000   0.000000   0.000000 )  
               a(2) = (   0.000000   1.000000   0.000000 )  
               a(3) = (   0.000000   0.000000   1.000000 )  

     reciprocal axes: (cart. coord. in units 2 pi/alat)
               b(1) = (  1.000000  0.000000  0.000000 )  
               b(2) = (  0.000000  1.000000  0.000000 )  
               b(3) = (  0.000000  0.000000  1.000000 )  


     PseudoPot. # 1 for Al read from file:
     /rds/homes/b/bxp912/pp/Al.pbe-nl-kjpaw_psl.1.0.0.UPF
     MD5 check sum: 339dbea23cf3ab9a065ad45c0f9085d7
     Pseudo is Projector augmented-wave + core cor, Zval =  3.0
     Generated using "atomic" code by A. Dal Corso v.5.1
     Shape of augmentation charge: PSQ
     Using radial grid of 1135 points,  4 beta functions with: 
                l(1) =   0
                l(2) =   0
                l(3) =   1
                l(4) =   1
     Q(r) pseudized with 0 coefficients 


     atomic species   valence    mass     pseudopotential
        Al             3.00    26.98200     Al( 1.00)

     No symmetry found



   Cartesian axes

     site n.     atom                  positions (alat units)
         1           Al  tau(   1) = (  -0.0000327   0.0000095   0.0000680  )
         2           Al  tau(   2) = (   0.2500796   0.2498100   0.0000703  )
         3           Al  tau(   3) = (   0.2499071   0.0000305   0.2502955  )
         4           Al  tau(   4) = (  -0.0000200   0.2502187   0.2501837  )
         5           Al  tau(   5) = (   0.0002558   0.0002521   0.4998810  )
         6           Al  tau(   6) = (   0.2501194   0.2498326   0.5000036  )
         7           Al  tau(   7) = (   0.2500278   0.0001539   0.7498880  )
         8           Al  tau(   8) = (   0.0000549   0.2501136   0.7502101  )
         9           Al  tau(   9) = (   0.0002375   0.5001078  -0.0000154  )
        10           Al  tau(  10) = (   0.2501396   0.7501762   0.0004054  )
        11           Al  tau(  11) = (   0.2501891   0.5001088   0.2502510  )
        12           Al  tau(  12) = (   0.0000383   0.7500455   0.2500253  )
        13           Al  tau(  13) = (   0.0001102   0.5001562   0.5000990  )
        14           Al  tau(  14) = (   0.2499640   0.7500632   0.4998706  )
        15           Al  tau(  15) = (   0.2503366   0.4997894   0.7496960  )
        16           Al  tau(  16) = (  -0.0003280   0.7497055   0.7499931  )
        17           Al  tau(  17) = (   0.5002037  -0.0001004  -0.0000387  )
        18           Al  tau(  18) = (   0.7499123   0.2500941  -0.0002332  )
        19           Al  tau(  19) = (   0.7496354  -0.0000959   0.2500771  )
        20           Al  tau(  20) = (   0.4999751   0.2499614   0.2498317  )
        21           Al  tau(  21) = (   0.4999211   0.0002929   0.4999726  )
        22           Al  tau(  22) = (   0.7500684   0.2496958   0.4999523  )
        23           Al  tau(  23) = (   0.7500357  -0.0000687   0.7500257  )
        24           Al  tau(  24) = (   0.5000114   0.2498864   0.7499948  )
        25           Al  tau(  25) = (   0.4998526   0.5001156  -0.0002192  )
        26           Al  tau(  26) = (   0.7497723   0.7500978   0.0002736  )
        27           Al  tau(  27) = (   0.7501007   0.4998018   0.2499462  )
        28           Al  tau(  28) = (   0.5000878   0.7497908   0.2502093  )
        29           Al  tau(  29) = (   0.4996761   0.5001027   0.5000404  )
        30           Al  tau(  30) = (   0.7501658   0.7499872   0.4998547  )
        31           Al  tau(  31) = (   0.7499472   0.5000095   0.7501393  )
        32           Al  tau(  32) = (   0.5000142   0.7499486   0.7499177  )

     number of k points=    14  Marzari-Vanderbilt smearing, width (Ry)=  0.0200
                       cart. coord. in units 2pi/alat
        k(    1) = (   0.1666667   0.1666667   0.1666667), wk =   0.1481481
        k(    2) = (   0.1666667   0.1666667  -0.5000000), wk =   0.1481481
        k(    3) = (   0.1666667  -0.5000000  -0.5000000), wk =   0.1481481
        k(    4) = (  -0.5000000  -0.5000000  -0.5000000), wk =   0.0740741
        k(    5) = (  -0.1666667  -0.1666667   0.1666667), wk =   0.1481481
        k(    6) = (  -0.1666667   0.1666667  -0.1666667), wk =   0.1481481
        k(    7) = (   0.1666667  -0.1666667  -0.1666667), wk =   0.1481481
        k(    8) = (  -0.1666667   0.1666667   0.5000000), wk =   0.1481481
        k(    9) = (  -0.5000000  -0.1666667   0.1666667), wk =   0.1481481
        k(   10) = (   0.5000000  -0.1666667  -0.1666667), wk =   0.1481481
        k(   11) = (  -0.1666667  -0.5000000   0.1666667), wk =   0.1481481
        k(   12) = (  -0.1666667   0.5000000  -0.1666667), wk =   0.1481481
        k(   13) = (  -0.5000000   0.1666667   0.5000000), wk =   0.1481481
        k(   14) = (  -0.5000000   0.5000000   0.1666667), wk =   0.1481481

     Dense  grid:    64589 G-vectors     FFT dimensions: (  50,  50,  50)

     Estimated max dynamical RAM per process >      19.75 MB

     Estimated total dynamical RAM >     394.92 MB

     Initial potential from superposition of free atoms

     starting charge   95.92671, renormalised to   96.00000
     Starting wfcs are  128 randomized atomic wfcs
     Checking if some PAW data can be deallocated... 

     total cpu time spent up to now is        2.4 secs

     Self-consistent Calculation

     iteration #  1     ecut=    31.00 Ry     beta= 0.10
     Davidson diagonalization with overlap
     ethr =  1.00E-02,  avg # of iterations =  3.0

     Threshold (ethr) on eigenvalues was too large:
     Diagonalizing with lowered threshold

     Davidson diagonalization with overlap
     ethr =  1.93E-04,  avg # of iterations =  3.6

     total cpu time spent up to now is        7.4 secs

     total energy              =   -1264.10558919 Ry
     Harris-Foulkes estimate   =   -1264.11176210 Ry
     estimated scf accuracy    <       0.18063661 Ry

     iteration #  2     ecut=    31.00 Ry     beta= 0.10
     Davidson diagonalization with overlap
     ethr =  1.88E-04,  avg # of iterations =  1.0

     total cpu time spent up to now is        9.1 secs

     total energy              =   -1264.05857563 Ry
     Harris-Foulkes estimate   =   -1264.10638156 Ry
     estimated scf accuracy    <       0.15686220 Ry

     iteration #  3     ecut=    31.00 Ry     beta= 0.10
     Davidson diagonalization with overlap
     ethr =  1.63E-04,  avg # of iterations =  1.0

     total cpu time spent up to now is       10.7 secs

     total energy              =   -1264.06150275 Ry
     Harris-Foulkes estimate   =   -1264.06161827 Ry
     estimated scf accuracy    <       0.00062254 Ry

     iteration #  4     ecut=    31.00 Ry     beta= 0.10
     Davidson diagonalization with overlap
     ethr =  6.48E-07,  avg # of iterations =  4.9

     total cpu time spent up to now is       14.2 secs

     total energy              =   -1264.06210027 Ry
     Harris-Foulkes estimate   =   -1264.06227512 Ry
     estimated scf accuracy    <       0.00034932 Ry

     iteration #  5     ecut=    31.00 Ry     beta= 0.10
     Davidson diagonalization with overlap
     ethr =  3.64E-07,  avg # of iterations =  1.9

     total cpu time spent up to now is       16.0 secs

     total energy              =   -1264.06190682 Ry
     Harris-Foulkes estimate   =   -1264.06211045 Ry
     estimated scf accuracy    <       0.00022816 Ry

     iteration #  6     ecut=    31.00 Ry     beta= 0.10
     Davidson diagonalization with overlap
     ethr =  2.38E-07,  avg # of iterations =  2.0

     total cpu time spent up to now is       18.3 secs

     total energy              =   -1264.06196970 Ry
     Harris-Foulkes estimate   =   -1264.06197110 Ry
     estimated scf accuracy    <       0.00001387 Ry

     iteration #  7     ecut=    31.00 Ry     beta= 0.10
     Davidson diagonalization with overlap
     ethr =  1.44E-08,  avg # of iterations =  2.1

     total cpu time spent up to now is       20.1 secs

     total energy              =   -1264.06196134 Ry
     Harris-Foulkes estimate   =   -1264.06197056 Ry
     estimated scf accuracy    <       0.00000579 Ry

     iteration #  8     ecut=    31.00 Ry     beta= 0.10
     Davidson diagonalization with overlap
     ethr =  6.03E-09,  avg # of iterations =  2.2

     total cpu time spent up to now is       22.1 secs

     total energy              =   -1264.06196252 Ry
     Harris-Foulkes estimate   =   -1264.06196204 Ry
     estimated scf accuracy    <       0.00000112 Ry

     iteration #  9     ecut=    31.00 Ry     beta= 0.10
     Davidson diagonalization with overlap
     ethr =  1.16E-09,  avg # of iterations =  2.0

     total cpu time spent up to now is       24.0 secs

     End of self-consistent calculation

          k = 0.1667 0.1667 0.1667 ( 10413 PWs)   bands (ev):

    -3.0432  -1.5441  -1.5417  -1.5386  -0.0593  -0.0585  -0.0563  -0.0551
    -0.0538  -0.0502   1.4111   1.4123   1.4145   1.4157   1.4168   1.4175
     1.4196   2.8654   2.8672   2.8685   2.8692   2.8711   2.8737   4.2332
     4.2339   4.2346   4.3304   4.3312   4.3319   5.6420   5.6423   5.6453
     5.6460   5.6474   5.6487   5.7587   7.0597   7.0600   7.0617   7.0634
     7.0644   7.0652   7.0731   7.0756   7.0788   7.4056   7.4063   7.4071
     8.4771   8.4777   8.4794   8.4808   8.4820   8.4826   8.8165   8.8180
     8.8194   8.8206

          k = 0.1667 0.1667-0.5000 ( 10376 PWs)   bands (ev):

    -2.5421  -2.5397  -1.0461  -1.0453  -1.0438  -1.0422   0.4327   0.4345
     0.4361   0.4372   0.4388   0.4394   1.8949   1.8961   1.9008   1.9014
     1.9033   1.9040   3.3439   3.3449   3.3454   3.3456   3.3479   3.3499
     4.7054   4.7059   4.7079   4.7086   4.7722   4.7734   4.7735   4.7747
     4.8027   4.8039   6.1392   6.1399   6.1415   6.1433   6.2234   6.2239
     6.2247   6.2256   7.5396   7.5402   7.5420   7.5436   7.6409   7.6422
     7.8548   7.8555   7.8571   7.8582   8.9785   8.9788   8.9800   8.9807
     9.3389   9.3407

          k = 0.1667-0.5000-0.5000 ( 10352 PWs)   bands (ev):

    -2.0426  -2.0416  -2.0392  -2.0378  -0.5512  -0.5502  -0.5478  -0.5464
     0.9243   0.9253   0.9277   0.9291   2.3767   2.3781   2.3788   2.3798
     2.3806   2.3828   2.3838   2.3844   3.8165   3.8179   3.8187   3.8197
     3.8204   3.8227   3.8237   3.8244   5.1718   5.1729   5.1754   5.1769
     5.2756   5.2769   5.2775   5.2785   5.2796   5.2816   5.2827   5.2833
     6.6680   6.6686   6.6698   6.6706   8.0996   8.1002   8.1014   8.1022
     8.4104   8.4113   8.4134   8.4146   9.3881   9.3898   9.3912   9.3925
     9.3940   9.3963

          k =-0.5000-0.5000-0.5000 ( 10432 PWs)   bands (ev):

    -1.5462  -1.5454  -1.5428  -1.5422  -1.5410  -1.5391  -1.5387  -1.5360
     2.8560   2.8564   2.8576   2.8583   2.8595   2.8605   2.8606   2.8616
     2.8619   2.8626   2.8629   2.8634   2.8638   2.8642   2.8648   2.8650
     2.8659   2.8668   2.8673   2.8676   2.8684   2.8699   2.8714   2.8735
     7.1488   7.1498   7.1505   7.1510   7.1522   7.1528   7.1533   7.1535
     7.1537   7.1544   7.1555   7.1560   7.1568   7.1570   7.1573   7.1579
     7.1584   7.1591   7.1595   7.1597   7.1607   7.1614   7.1631   7.1633
    11.3529  11.3539

          k =-0.1667-0.1667 0.1667 ( 10413 PWs)   bands (ev):

    -3.0432  -1.5436  -1.5417  -1.5392  -0.0591  -0.0577  -0.0564  -0.0550
    -0.0526  -0.0523   1.4106   1.4138   1.4142   1.4152   1.4165   1.4175
     1.4198   2.8663   2.8672   2.8680   2.8693   2.8708   2.8734   4.2335
     4.2339   4.2343   4.3307   4.3312   4.3316   5.6411   5.6441   5.6446
     5.6457   5.6474   5.6489   5.7587   7.0597   7.0612   7.0620   7.0630
     7.0638   7.0648   7.0736   7.0757   7.0782   7.4059   7.4063   7.4068
     8.4774   8.4786   8.4796   8.4804   8.4811   8.4825   8.8172   8.8181
     8.8191   8.8213

          k =-0.1667 0.1667-0.1667 ( 10413 PWs)   bands (ev):

    -3.0432  -1.5441  -1.5415  -1.5388  -0.0595  -0.0581  -0.0559  -0.0548
    -0.0533  -0.0517   1.4116   1.4123   1.4139   1.4150   1.4170   1.4182
     1.4195   2.8666   2.8670   2.8678   2.8691   2.8712   2.8733   4.2331
     4.2339   4.2346   4.3303   4.3312   4.3320   5.6422   5.6428   5.6440
     5.6453   5.6479   5.6496   5.7587   7.0598   7.0607   7.0614   7.0632
     7.0643   7.0653   7.0732   7.0757   7.0784   7.4055   7.4063   7.4072
     8.4773   8.4781   8.4789   8.4810   8.4816   8.4826   8.8164   8.8178
     8.8191   8.8212

          k = 0.1667-0.1667-0.1667 ( 10413 PWs)   bands (ev):

    -3.0432  -1.5437  -1.5421  -1.5386  -0.0595  -0.0578  -0.0563  -0.0557
    -0.0544  -0.0494   1.4117   1.4123   1.4133   1.4154   1.4164   1.4171
     1.4214   2.8656   2.8667   2.8679   2.8697   2.8706   2.8745   4.2330
     4.2339   4.2347   4.3302   4.3312   4.3321   5.6419   5.6430   5.6444
     5.6458   5.6471   5.6496   5.7587   7.0594   7.0608   7.0614   7.0631
     7.0636   7.0655   7.0739   7.0754   7.0789   7.4054   7.4063   7.4073
     8.4767   8.4785   8.4791   8.4810   8.4814   8.4828   8.8176   8.8178
     8.8195   8.8208

          k =-0.1667 0.1667 0.5000 ( 10376 PWs)   bands (ev):

    -2.5421  -2.5397  -1.0467  -1.0447  -1.0442  -1.0418   0.4330   0.4339
     0.4357   0.4372   0.4387   0.4401   1.8946   1.8960   1.9006   1.9018
     1.9030   1.9044   3.3436   3.3447   3.3455   3.3466   3.3476   3.3496
     4.7050   4.7063   4.7076   4.7089   4.7718   4.7730   4.7738   4.7750
     4.8027   4.8039   6.1386   6.1406   6.1411   6.1436   6.2229   6.2241
     6.2247   6.2258   7.5394   7.5405   7.5420   7.5434   7.6409   7.6422
     7.8543   7.8560   7.8569   7.8585   8.9782   8.9791   8.9800   8.9808
     9.3385   9.3410

          k =-0.5000-0.1667 0.1667 ( 10376 PWs)   bands (ev):

    -2.5422  -2.5395  -1.0473  -1.0445  -1.0437  -1.0419   0.4330   0.4349
     0.4358   0.4372   0.4382   0.4396   1.8948   1.8958   1.9009   1.9013
     1.9032   1.9044   3.3434   3.3447   3.3458   3.3469   3.3474   3.3496
     4.7054   4.7057   4.7077   4.7090   4.7716   4.7729   4.7740   4.7752
     4.8025   4.8039   6.1379   6.1408   6.1417   6.1435   6.2233   6.2240
     6.2243   6.2261   7.5390   7.5406   7.5424   7.5434   7.6409   7.6423
     7.8548   7.8553   7.8569   7.8586   8.9780   8.9792   8.9795   8.9814
     9.3379   9.3402

          k = 0.5000-0.1667-0.1667 ( 10376 PWs)   bands (ev):

    -2.5422  -2.5395  -1.0476  -1.0444  -1.0437  -1.0416   0.4318   0.4346
     0.4355   0.4372   0.4381   0.4414   1.8949   1.8957   1.9003   1.9018
     1.9034   1.9043   3.3428   3.3441   3.3458   3.3468   3.3479   3.3502
     4.7050   4.7061   4.7078   4.7089   4.7710   4.7724   4.7746   4.7757
     4.8026   4.8041   6.1376   6.1409   6.1416   6.1439   6.2229   6.2241
     6.2247   6.2258   7.5392   7.5405   7.5416   7.5441   7.6409   7.6423
     7.8543   7.8558   7.8571   7.8585   8.9782   8.9791   8.9801   8.9808
     9.3379   9.3396

          k =-0.1667-0.5000 0.1667 ( 10376 PWs)   bands (ev):

    -2.5412  -2.5406  -1.0465  -1.0460  -1.0432  -1.0416   0.4333   0.4340
     0.4359   0.4363   0.4385   0.4406   1.8950   1.8956   1.9019   1.9021
     1.9026   1.9031   3.3433   3.3435   3.3467   3.3471   3.3481   3.3489
     4.7066   4.7067   4.7072   4.7073   4.7715   4.7717   4.7750   4.7755
     4.8031   4.8035   6.1388   6.1393   6.1421   6.1438   6.2241   6.2242
     6.2246   6.2247   7.5397   7.5409   7.5421   7.5426   7.6414   7.6418
     7.8560   7.8561   7.8566   7.8568   8.9792   8.9793   8.9798   8.9799
     9.3382   9.3395

          k =-0.1667 0.5000-0.1667 ( 10376 PWs)   bands (ev):

    -2.5412  -2.5406  -1.0468  -1.0462  -1.0426  -1.0417   0.4333   0.4342
     0.4363   0.4371   0.4380   0.4397   1.8949   1.8955   1.9020   1.9023
     1.9024   1.9033   3.3428   3.3433   3.3467   3.3472   3.3487   3.3490
     4.7066   4.7067   4.7067   4.7078   4.7711   4.7714   4.7755   4.7758
     4.8030   4.8034   6.1385   6.1391   6.1427   6.1437   6.2238   6.2242
     6.2243   6.2254   7.5400   7.5405   7.5420   7.5429   7.6414   7.6418
     7.8559   7.8561   7.8562   7.8574   8.9789   8.9791   8.9796   8.9805
     9.3383   9.3405

          k =-0.5000 0.1667 0.5000 ( 10352 PWs)   bands (ev):

    -2.0440  -2.0414  -2.0390  -2.0368  -0.5526  -0.5499  -0.5476  -0.5454
     0.9228   0.9255   0.9278   0.9301   2.3763   2.3770   2.3784   2.3808
     2.3817   2.3821   2.3833   2.3853   3.8161   3.8168   3.8183   3.8206
     3.8217   3.8220   3.8232   3.8252   5.1703   5.1731   5.1756   5.1780
     5.2750   5.2759   5.2772   5.2796   5.2805   5.2811   5.2822   5.2843
     6.6674   6.6687   6.6700   6.6710   8.0989   8.1004   8.1014   8.1027
     8.4091   8.4116   8.4134   8.4156   9.3878   9.3892   9.3905   9.3930
     9.3944   9.3961

          k =-0.5000 0.5000 0.1667 ( 10352 PWs)   bands (ev):

    -2.0424  -2.0413  -2.0388  -2.0387  -0.5510  -0.5499  -0.5474  -0.5472
     0.9245   0.9256   0.9281   0.9282   2.3768   2.3782   2.3788   2.3803
     2.3809   2.3826   2.3834   2.3840   3.8167   3.8181   3.8186   3.8202
     3.8208   3.8224   3.8234   3.8240   5.1720   5.1732   5.1758   5.1760
     5.2757   5.2770   5.2777   5.2790   5.2798   5.2815   5.2821   5.2829
     6.6682   6.6688   6.6700   6.6701   8.0997   8.1003   8.1016   8.1017
     8.4105   8.4115   8.4138   8.4139   9.3884   9.3902   9.3920   9.3925
     9.3941   9.3954

     the Fermi energy is     7.8166 ev

!    total energy              =   -1264.06196222 Ry
     Harris-Foulkes estimate   =   -1264.06196261 Ry
     estimated scf accuracy    <       0.00000029 Ry

     total all-electron energy =    -15540.630984 Ry

     The total energy is the sum of the following terms:

     one-electron contribution =     101.26566981 Ry
     hartree contribution      =       0.20238861 Ry
     xc contribution           =     -82.91846278 Ry
     ewald contribution        =    -172.93188273 Ry
     one-center paw contrib.   =   -1109.68235339 Ry
     smearing contrib. (-TS)   =       0.00267825 Ry

     convergence has been achieved in   9 iterations

     Forces acting on atoms (cartesian axes, Ry/au):

     atom    1 type  1   force =    -0.00000690    0.00000331    0.00001811
     atom    2 type  1   force =    -0.00009173    0.00022046    0.00008363
     atom    3 type  1   force =     0.00022519   -0.00003124   -0.00051665
     atom    4 type  1   force =    -0.00005653   -0.00016042   -0.00034901
     atom    5 type  1   force =    -0.00043850   -0.00039558    0.00032227
     atom    6 type  1   force =    -0.00014927    0.00043531    0.00000425
     atom    7 type  1   force =    -0.00014958   -0.00055235    0.00032726
     atom    8 type  1   force =     0.00001906   -0.00007412   -0.00025782
     atom    9 type  1   force =     0.00000979   -0.00007647    0.00011570
     atom   10 type  1   force =    -0.00016733   -0.00009326   -0.00068673
     atom   11 type  1   force =    -0.00024416   -0.00025551   -0.00039618
     atom   12 type  1   force =    -0.00008733    0.00002685   -0.00006957
     atom   13 type  1   force =    -0.00019469   -0.00033071   -0.00002439
     atom   14 type  1   force =    -0.00002893    0.00014740    0.00042495
     atom   15 type  1   force =    -0.00051017    0.00032545    0.00051777
     atom   16 type  1   force =     0.00062621    0.00048881    0.00013886
     atom   17 type  1   force =    -0.00044122    0.00002299    0.00010049
     atom   18 type  1   force =     0.00020778   -0.00004143    0.00042468
     atom   19 type  1   force =     0.00052383    0.00023408   -0.00009139
     atom   20 type  1   force =     0.00007163    0.00021366    0.00006347
     atom   21 type  1   force =     0.00019255   -0.00054432    0.00011600
     atom   22 type  1   force =    -0.00014476    0.00059489    0.00012842
     atom   23 type  1   force =     0.00011838   -0.00010713   -0.00022176
     atom   24 type  1   force =     0.00013224    0.00013809   -0.00008855
     atom   25 type  1   force =     0.00010506   -0.00016451    0.00033709
     atom   26 type  1   force =     0.00031165   -0.00023183   -0.00024491
     atom   27 type  1   force =    -0.00015828    0.00001695    0.00011165
     atom   28 type  1   force =    -0.00008897    0.00024072   -0.00006480
     atom   29 type  1   force =     0.00083401   -0.00033586   -0.00009361
     atom   30 type  1   force =    -0.00025894    0.00003765    0.00025215
     atom   31 type  1   force =    -0.00008486   -0.00004374   -0.00034828
     atom   32 type  1   force =    -0.00007520    0.00029188   -0.00003311

     Total force =     0.002736     Total SCF correction =     0.000479
     SCF correction compared to forces is large: reduce conv_thr to get better values


     Computing stress (Cartesian axis) and pressure

          total   stress  (Ry/bohr**3)                   (kbar)     P=   -1.35
  -0.00000915  -0.00000000   0.00000000         -1.35     -0.00      0.00
  -0.00000000  -0.00000915   0.00000000         -0.00     -1.35      0.00
   0.00000000   0.00000000  -0.00000916          0.00      0.00     -1.35


     Writing output data file fe_scf_fcc_2.save/
 
     init_run     :      1.48s CPU      1.62s WALL (       1 calls)
     electrons    :     21.08s CPU     21.59s WALL (       1 calls)
     forces       :      0.33s CPU      0.34s WALL (       1 calls)
     stress       :      1.22s CPU      1.22s WALL (       1 calls)

     Called by init_run:
     wfcinit      :      1.23s CPU      1.29s WALL (       1 calls)
     potinit      :      0.11s CPU      0.11s WALL (       1 calls)
     hinit0       :      0.11s CPU      0.19s WALL (       1 calls)

     Called by electrons:
     c_bands      :     17.69s CPU     18.11s WALL (      10 calls)
     sum_band     :      2.37s CPU      2.45s WALL (      10 calls)
     v_of_rho     :      0.08s CPU      0.08s WALL (      10 calls)
     newd         :      0.06s CPU      0.06s WALL (      10 calls)
     PAW_pot      :      0.97s CPU      0.98s WALL (      10 calls)
     mix_rho      :      0.02s CPU      0.02s WALL (      10 calls)

     Called by c_bands:
     init_us_2    :      0.44s CPU      0.44s WALL (     322 calls)
     cegterg      :     16.53s CPU     16.94s WALL (     140 calls)

     Called by sum_band:
     sum_band:bec :      0.02s CPU      0.02s WALL (     140 calls)
     addusdens    :      0.05s CPU      0.05s WALL (      10 calls)

     Called by *egterg:
     h_psi        :     11.29s CPU     11.63s WALL (     485 calls)
     s_psi        :      1.09s CPU      1.10s WALL (     485 calls)
     g_psi        :      0.05s CPU      0.05s WALL (     331 calls)
     cdiaghg      :      2.96s CPU      2.97s WALL (     457 calls)

     Called by h_psi:
     h_psi:pot    :     11.21s CPU     11.55s WALL (     485 calls)
     h_psi:calbec :      1.15s CPU      1.22s WALL (     485 calls)
     vloc_psi     :      8.94s CPU      9.20s WALL (     485 calls)
     add_vuspsi   :      1.11s CPU      1.13s WALL (     485 calls)

     General routines
     calbec       :      1.78s CPU      1.89s WALL (     695 calls)
     fft          :      0.16s CPU      0.24s WALL (     137 calls)
     ffts         :      0.01s CPU      0.01s WALL (      10 calls)
     fftw         :      9.86s CPU     10.14s WALL (   53158 calls)
 
     Parallel routines
     fft_scatt_xy :      0.90s CPU      0.93s WALL (   53305 calls)
     fft_scatt_yz :      5.38s CPU      5.54s WALL (   53305 calls)
 
     PWSCF        :    25.02s CPU        25.92s WALL

 
   This run was terminated on:   1: 2:19  12Mar2020            

=------------------------------------------------------------------------------=
   JOB DONE.
=------------------------------------------------------------------------------=
