
     Program PWSCF v.6.4.1 starts on  8Apr2020 at  5:51:18 

     This program is part of the open-source Quantum ESPRESSO suite
     for quantum simulation of materials; please cite
         "P. Giannozzi et al., J. Phys.:Condens. Matter 21 395502 (2009);
         "P. Giannozzi et al., J. Phys.:Condens. Matter 29 465901 (2017);
          URL http://www.quantum-espresso.org", 
     in publications or presentations arising from this work. More details at
     http://www.quantum-espresso.org/quote

     Parallel version (MPI), running on     4 processors

     MPI processes distributed on     1 nodes
     R & G space division:  proc/nbgrp/npool/nimage =       4
     Reading input from wd/ecut/file_000056.in
Warning: card &IONS ignored
Warning: card ION_DYNAMICS = 'BFGS', ignored
Warning: card / ignored
Warning: card &CELL ignored
Warning: card CELL_DYNAMICS = 'BFGS', ignored
Warning: card CELL_FACTOR = 2.0, ignored
Warning: card PRESS = 0.0, ignored
Warning: card / ignored

     Current dimensions of program PWSCF are:
     Max number of different atomic species (ntypx) = 10
     Max number of k-points (npk) =  40000
     Max angular momentum in pseudopotentials (lmaxx) =  3
               file Al.pbe-nl-kjpaw_psl.1.0.0.UPF: wavefunction(s)  3S 3P renormalized

     Subspace diagonalization in iterative solution of the eigenvalue problem:
     a serial algorithm will be used


     Parallelization info
     --------------------
     sticks:   dense  smooth     PW     G-vecs:    dense   smooth      PW
     Min         465     465    183                15059    15059    3698
     Max         466     466    184                15064    15064    3699
     Sum        1861    1861    733                60245    60245   14795



     bravais-lattice index     =            0
     lattice parameter (alat)  =      15.2712  a.u.
     unit-cell volume          =    3561.3897 (a.u.)^3
     number of atoms/cell      =           32
     number of atomic types    =            1
     number of electrons       =        96.00
     number of Kohn-Sham states=           58
     kinetic-energy cutoff     =      35.0000  Ry
     charge density cutoff     =     100.0000  Ry
     convergence threshold     =      1.0E-06
     mixing beta               =       0.1000
     number of iterations used =           10  TF        mixing
     Exchange-correlation      = SLA PW PBX PBC ( 1  4  3  4 0 0)

     celldm(1)=  15.271200  celldm(2)=   0.000000  celldm(3)=   0.000000
     celldm(4)=   0.000000  celldm(5)=   0.000000  celldm(6)=   0.000000

     crystal axes: (cart. coord. in units of alat)
               a(1) = (   1.000000   0.000000   0.000000 )  
               a(2) = (   0.000000   1.000000   0.000000 )  
               a(3) = (   0.000000   0.000000   1.000000 )  

     reciprocal axes: (cart. coord. in units 2 pi/alat)
               b(1) = (  1.000000  0.000000  0.000000 )  
               b(2) = (  0.000000  1.000000  0.000000 )  
               b(3) = (  0.000000  0.000000  1.000000 )  


     PseudoPot. # 1 for Al read from file:
     /opt/pp/Al.pbe-nl-kjpaw_psl.1.0.0.UPF
     MD5 check sum: 1b67f78b73fe58c7924490f171ce8a1e
     Pseudo is Projector augmented-wave + core cor, Zval =  3.0
     Generated using "atomic" code by A. Dal Corso v.6.3
     Shape of augmentation charge: PSQ
     Using radial grid of 1135 points,  4 beta functions with: 
                l(1) =   0
                l(2) =   0
                l(3) =   1
                l(4) =   1
     Q(r) pseudized with 0 coefficients 


     atomic species   valence    mass     pseudopotential
        Al             3.00    26.98200     Al( 1.00)

     No symmetry found



   Cartesian axes

     site n.     atom                  positions (alat units)
         1           Al  tau(   1) = (  -0.0000327   0.0000095   0.0000680  )
         2           Al  tau(   2) = (   0.2500796   0.2498100   0.0000703  )
         3           Al  tau(   3) = (   0.2499071   0.0000305   0.2502955  )
         4           Al  tau(   4) = (  -0.0000200   0.2502187   0.2501837  )
         5           Al  tau(   5) = (   0.0002558   0.0002521   0.4998810  )
         6           Al  tau(   6) = (   0.2501194   0.2498326   0.5000036  )
         7           Al  tau(   7) = (   0.2500278   0.0001539   0.7498880  )
         8           Al  tau(   8) = (   0.0000549   0.2501136   0.7502101  )
         9           Al  tau(   9) = (   0.0002375   0.5001078  -0.0000154  )
        10           Al  tau(  10) = (   0.2501396   0.7501762   0.0004054  )
        11           Al  tau(  11) = (   0.2501891   0.5001088   0.2502510  )
        12           Al  tau(  12) = (   0.0000383   0.7500455   0.2500253  )
        13           Al  tau(  13) = (   0.0001102   0.5001562   0.5000990  )
        14           Al  tau(  14) = (   0.2499640   0.7500632   0.4998706  )
        15           Al  tau(  15) = (   0.2503366   0.4997894   0.7496960  )
        16           Al  tau(  16) = (  -0.0003280   0.7497055   0.7499931  )
        17           Al  tau(  17) = (   0.5002037  -0.0001004  -0.0000387  )
        18           Al  tau(  18) = (   0.7499123   0.2500941  -0.0002332  )
        19           Al  tau(  19) = (   0.7496354  -0.0000959   0.2500771  )
        20           Al  tau(  20) = (   0.4999751   0.2499614   0.2498317  )
        21           Al  tau(  21) = (   0.4999211   0.0002929   0.4999726  )
        22           Al  tau(  22) = (   0.7500684   0.2496958   0.4999523  )
        23           Al  tau(  23) = (   0.7500357  -0.0000687   0.7500257  )
        24           Al  tau(  24) = (   0.5000114   0.2498864   0.7499948  )
        25           Al  tau(  25) = (   0.4998526   0.5001156  -0.0002192  )
        26           Al  tau(  26) = (   0.7497723   0.7500978   0.0002736  )
        27           Al  tau(  27) = (   0.7501007   0.4998018   0.2499462  )
        28           Al  tau(  28) = (   0.5000878   0.7497908   0.2502093  )
        29           Al  tau(  29) = (   0.4996761   0.5001027   0.5000404  )
        30           Al  tau(  30) = (   0.7501658   0.7499872   0.4998547  )
        31           Al  tau(  31) = (   0.7499472   0.5000095   0.7501393  )
        32           Al  tau(  32) = (   0.5000142   0.7499486   0.7499177  )

     number of k points=    14  Marzari-Vanderbilt smearing, width (Ry)=  0.0200
                       cart. coord. in units 2pi/alat
        k(    1) = (   0.1666667   0.1666667   0.1666667), wk =   0.1481481
        k(    2) = (   0.1666667   0.1666667  -0.5000000), wk =   0.1481481
        k(    3) = (   0.1666667  -0.5000000  -0.5000000), wk =   0.1481481
        k(    4) = (  -0.5000000  -0.5000000  -0.5000000), wk =   0.0740741
        k(    5) = (  -0.1666667  -0.1666667   0.1666667), wk =   0.1481481
        k(    6) = (  -0.1666667   0.1666667  -0.1666667), wk =   0.1481481
        k(    7) = (   0.1666667  -0.1666667  -0.1666667), wk =   0.1481481
        k(    8) = (  -0.1666667   0.1666667   0.5000000), wk =   0.1481481
        k(    9) = (  -0.5000000  -0.1666667   0.1666667), wk =   0.1481481
        k(   10) = (   0.5000000  -0.1666667  -0.1666667), wk =   0.1481481
        k(   11) = (  -0.1666667  -0.5000000   0.1666667), wk =   0.1481481
        k(   12) = (  -0.1666667   0.5000000  -0.1666667), wk =   0.1481481
        k(   13) = (  -0.5000000   0.1666667   0.5000000), wk =   0.1481481
        k(   14) = (  -0.5000000   0.5000000   0.1666667), wk =   0.1481481

     Dense  grid:    60245 G-vectors     FFT dimensions: (  50,  50,  50)

     Estimated max dynamical RAM per process >      99.21 MB

     Estimated total dynamical RAM >     396.83 MB

     Initial potential from superposition of free atoms

     starting charge   95.92671, renormalised to   96.00000
     Starting wfcs are  128 randomized atomic wfcs
     Checking if some PAW data can be deallocated... 

     total cpu time spent up to now is       23.4 secs

     Self-consistent Calculation

     iteration #  1     ecut=    35.00 Ry     beta= 0.10
     Davidson diagonalization with overlap
     ethr =  1.00E-02,  avg # of iterations =  3.0

     Threshold (ethr) on eigenvalues was too large:
     Diagonalizing with lowered threshold

     Davidson diagonalization with overlap
     ethr =  1.93E-04,  avg # of iterations =  3.6

     total cpu time spent up to now is       92.4 secs

     total energy              =   -1264.10794671 Ry
     Harris-Foulkes estimate   =   -1264.11412521 Ry
     estimated scf accuracy    <       0.18074867 Ry

     iteration #  2     ecut=    35.00 Ry     beta= 0.10
     Davidson diagonalization with overlap
     ethr =  1.88E-04,  avg # of iterations =  1.0

     total cpu time spent up to now is      114.5 secs

     total energy              =   -1264.06094911 Ry
     Harris-Foulkes estimate   =   -1264.10874047 Ry
     estimated scf accuracy    <       0.15690357 Ry

     iteration #  3     ecut=    35.00 Ry     beta= 0.10
     Davidson diagonalization with overlap
     ethr =  1.63E-04,  avg # of iterations =  1.0

     total cpu time spent up to now is      136.8 secs

     total energy              =   -1264.06385586 Ry
     Harris-Foulkes estimate   =   -1264.06398740 Ry
     estimated scf accuracy    <       0.00060977 Ry

     iteration #  4     ecut=    35.00 Ry     beta= 0.10
     Davidson diagonalization with overlap
     ethr =  6.35E-07,  avg # of iterations =  4.9

     total cpu time spent up to now is      186.3 secs

     total energy              =   -1264.06447476 Ry
     Harris-Foulkes estimate   =   -1264.06464072 Ry
     estimated scf accuracy    <       0.00034840 Ry

     iteration #  5     ecut=    35.00 Ry     beta= 0.10
     Davidson diagonalization with overlap
     ethr =  3.63E-07,  avg # of iterations =  2.0

     total cpu time spent up to now is      208.6 secs

     total energy              =   -1264.06428000 Ry
     Harris-Foulkes estimate   =   -1264.06448482 Ry
     estimated scf accuracy    <       0.00022720 Ry

     iteration #  6     ecut=    35.00 Ry     beta= 0.10
     Davidson diagonalization with overlap
     ethr =  2.37E-07,  avg # of iterations =  2.0

     total cpu time spent up to now is      241.2 secs

     total energy              =   -1264.06434446 Ry
     Harris-Foulkes estimate   =   -1264.06434446 Ry
     estimated scf accuracy    <       0.00001389 Ry

     iteration #  7     ecut=    35.00 Ry     beta= 0.10
     Davidson diagonalization with overlap
     ethr =  1.45E-08,  avg # of iterations =  2.5

     total cpu time spent up to now is      265.9 secs

     total energy              =   -1264.06433587 Ry
     Harris-Foulkes estimate   =   -1264.06434539 Ry
     estimated scf accuracy    <       0.00000567 Ry

     iteration #  8     ecut=    35.00 Ry     beta= 0.10
     Davidson diagonalization with overlap
     ethr =  5.91E-09,  avg # of iterations =  2.5

     total cpu time spent up to now is      295.4 secs

     total energy              =   -1264.06433705 Ry
     Harris-Foulkes estimate   =   -1264.06433664 Ry
     estimated scf accuracy    <       0.00000106 Ry

     iteration #  9     ecut=    35.00 Ry     beta= 0.10
     Davidson diagonalization with overlap
     ethr =  1.11E-09,  avg # of iterations =  2.0

     total cpu time spent up to now is      319.2 secs

     End of self-consistent calculation

          k = 0.1667 0.1667 0.1667 ( 12485 PWs)   bands (ev):

    -3.0435  -1.5444  -1.5419  -1.5389  -0.0596  -0.0587  -0.0566  -0.0554
    -0.0540  -0.0504   1.4108   1.4120   1.4142   1.4155   1.4165   1.4172
     1.4194   2.8651   2.8669   2.8682   2.8689   2.8708   2.8733   4.2329
     4.2336   4.2343   4.3299   4.3307   4.3315   5.6415   5.6418   5.6448
     5.6455   5.6469   5.6481   5.7581   7.0589   7.0593   7.0609   7.0627
     7.0636   7.0644   7.0724   7.0749   7.0780   7.4047   7.4055   7.4062
     8.4761   8.4767   8.4784   8.4798   8.4810   8.4816   8.8157   8.8169
     8.8187   8.8192

          k = 0.1667 0.1667-0.5000 ( 12424 PWs)   bands (ev):

    -2.5424  -2.5399  -1.0463  -1.0456  -1.0440  -1.0424   0.4324   0.4342
     0.4359   0.4369   0.4385   0.4392   1.8946   1.8959   1.9005   1.9011
     1.9030   1.9038   3.3436   3.3446   3.3450   3.3453   3.3476   3.3496
     4.7050   4.7055   4.7074   4.7082   4.7716   4.7729   4.7730   4.7741
     4.8021   4.8033   6.1386   6.1393   6.1409   6.1426   6.2227   6.2233
     6.2240   6.2250   7.5389   7.5395   7.5412   7.5428   7.6401   7.6415
     7.8539   7.8546   7.8562   7.8573   8.9776   8.9778   8.9790   8.9798
     9.3368   9.3394

          k = 0.1667-0.5000-0.5000 ( 12456 PWs)   bands (ev):

    -2.0429  -2.0419  -2.0394  -2.0381  -0.5514  -0.5504  -0.5480  -0.5466
     0.9240   0.9250   0.9274   0.9288   2.3764   2.3778   2.3785   2.3795
     2.3804   2.3825   2.3835   2.3842   3.8161   3.8175   3.8183   3.8193
     3.8200   3.8223   3.8233   3.8239   5.1713   5.1724   5.1750   5.1764
     5.2749   5.2762   5.2769   5.2778   5.2790   5.2809   5.2820   5.2827
     6.6673   6.6679   6.6692   6.6699   8.0987   8.0993   8.1005   8.1013
     8.4096   8.4105   8.4126   8.4138   9.3869   9.3887   9.3899   9.3913
     9.3938   9.3951

          k =-0.5000-0.5000-0.5000 ( 12568 PWs)   bands (ev):

    -1.5465  -1.5457  -1.5431  -1.5425  -1.5413  -1.5394  -1.5390  -1.5363
     2.8557   2.8561   2.8573   2.8580   2.8592   2.8602   2.8604   2.8614
     2.8616   2.8623   2.8626   2.8632   2.8635   2.8639   2.8645   2.8647
     2.8656   2.8665   2.8670   2.8673   2.8681   2.8696   2.8711   2.8732
     7.1480   7.1490   7.1497   7.1503   7.1514   7.1520   7.1525   7.1528
     7.1529   7.1536   7.1548   7.1553   7.1560   7.1562   7.1565   7.1571
     7.1576   7.1583   7.1587   7.1589   7.1599   7.1606   7.1623   7.1625
    11.3520  11.3534

          k =-0.1667-0.1667 0.1667 ( 12485 PWs)   bands (ev):

    -3.0435  -1.5438  -1.5419  -1.5394  -0.0593  -0.0580  -0.0567  -0.0553
    -0.0529  -0.0526   1.4104   1.4135   1.4140   1.4149   1.4162   1.4172
     1.4195   2.8660   2.8669   2.8677   2.8690   2.8705   2.8731   4.2332
     4.2336   4.2340   4.3302   4.3307   4.3311   5.6405   5.6436   5.6441
     5.6451   5.6468   5.6483   5.7581   7.0590   7.0604   7.0612   7.0622
     7.0631   7.0640   7.0729   7.0749   7.0774   7.4050   7.4055   7.4059
     8.4765   8.4776   8.4786   8.4794   8.4801   8.4815   8.8158   8.8175
     8.8186   8.8202

          k =-0.1667 0.1667-0.1667 ( 12485 PWs)   bands (ev):

    -3.0435  -1.5443  -1.5417  -1.5391  -0.0598  -0.0584  -0.0561  -0.0550
    -0.0535  -0.0519   1.4114   1.4120   1.4136   1.4148   1.4167   1.4179
     1.4193   2.8663   2.8667   2.8675   2.8688   2.8709   2.8730   4.2329
     4.2336   4.2344   4.3298   4.3307   4.3315   5.6416   5.6422   5.6435
     5.6447   5.6474   5.6490   5.7581   7.0590   7.0599   7.0606   7.0624
     7.0635   7.0645   7.0724   7.0749   7.0777   7.4046   7.4055   7.4063
     8.4763   8.4772   8.4779   8.4800   8.4806   8.4816   8.8161   8.8165
     8.8184   8.8201

          k = 0.1667-0.1667-0.1667 ( 12485 PWs)   bands (ev):

    -3.0435  -1.5440  -1.5423  -1.5388  -0.0598  -0.0580  -0.0566  -0.0560
    -0.0547  -0.0497   1.4115   1.4120   1.4131   1.4151   1.4161   1.4168
     1.4211   2.8653   2.8664   2.8676   2.8694   2.8703   2.8742   4.2328
     4.2336   4.2345   4.3298   4.3307   4.3316   5.6413   5.6424   5.6439
     5.6452   5.6466   5.6491   5.7581   7.0586   7.0601   7.0606   7.0623
     7.0629   7.0647   7.0731   7.0747   7.0781   7.4046   7.4055   7.4064
     8.4758   8.4775   8.4781   8.4800   8.4804   8.4818   8.8159   8.8172
     8.8186   8.8195

          k =-0.1667 0.1667 0.5000 ( 12424 PWs)   bands (ev):

    -2.5424  -2.5399  -1.0469  -1.0449  -1.0444  -1.0420   0.4327   0.4337
     0.4355   0.4370   0.4384   0.4398   1.8944   1.8957   1.9004   1.9016
     1.9028   1.9041   3.3432   3.3444   3.3451   3.3463   3.3473   3.3493
     4.7046   4.7059   4.7072   4.7084   4.7713   4.7724   4.7732   4.7744
     4.8022   4.8034   6.1379   6.1400   6.1405   6.1430   6.2223   6.2234
     6.2241   6.2252   7.5387   7.5398   7.5412   7.5427   7.6401   7.6415
     7.8534   7.8550   7.8560   7.8576   8.9772   8.9782   8.9790   8.9798
     9.3378   9.3395

          k =-0.5000-0.1667 0.1667 ( 12424 PWs)   bands (ev):

    -2.5425  -2.5398  -1.0475  -1.0448  -1.0439  -1.0422   0.4328   0.4347
     0.4355   0.4369   0.4379   0.4393   1.8945   1.8956   1.9006   1.9011
     1.9029   1.9042   3.3431   3.3443   3.3454   3.3465   3.3470   3.3493
     4.7050   4.7053   4.7073   4.7086   4.7711   4.7724   4.7735   4.7747
     4.8020   4.8034   6.1373   6.1401   6.1411   6.1429   6.2226   6.2233
     6.2236   6.2254   7.5382   7.5399   7.5416   7.5426   7.6401   7.6415
     7.8539   7.8544   7.8559   7.8577   8.9771   8.9782   8.9785   8.9804
     9.3369   9.3400

          k = 0.5000-0.1667-0.1667 ( 12424 PWs)   bands (ev):

    -2.5425  -2.5398  -1.0479  -1.0447  -1.0440  -1.0418   0.4315   0.4343
     0.4353   0.4369   0.4379   0.4412   1.8946   1.8955   1.9001   1.9016
     1.9032   1.9040   3.3425   3.3438   3.3454   3.3465   3.3476   3.3498
     4.7045   4.7057   4.7074   4.7085   4.7704   4.7718   4.7740   4.7751
     4.8021   4.8036   6.1370   6.1402   6.1409   6.1432   6.2223   6.2235
     6.2241   6.2251   7.5384   7.5397   7.5408   7.5434   7.6401   7.6415
     7.8533   7.8549   7.8562   7.8576   8.9772   8.9781   8.9791   8.9798
     9.3374   9.3383

          k =-0.1667-0.5000 0.1667 ( 12424 PWs)   bands (ev):

    -2.5414  -2.5408  -1.0468  -1.0462  -1.0435  -1.0419   0.4330   0.4337
     0.4357   0.4360   0.4383   0.4404   1.8948   1.8954   1.9017   1.9019
     1.9024   1.9028   3.3429   3.3432   3.3463   3.3468   3.3478   3.3486
     4.7062   4.7063   4.7068   4.7069   4.7710   4.7711   4.7744   4.7749
     4.8026   4.8030   6.1381   6.1387   6.1415   6.1431   6.2234   6.2235
     6.2239   6.2240   7.5389   7.5402   7.5413   7.5419   7.6406   7.6410
     7.8551   7.8552   7.8557   7.8559   8.9782   8.9783   8.9788   8.9789
     9.3375   9.3390

          k =-0.1667 0.5000-0.1667 ( 12424 PWs)   bands (ev):

    -2.5414  -2.5408  -1.0470  -1.0465  -1.0429  -1.0419   0.4330   0.4339
     0.4361   0.4369   0.4378   0.4394   1.8947   1.8952   1.9017   1.9020
     1.9022   1.9030   3.3425   3.3429   3.3463   3.3468   3.3484   3.3487
     4.7062   4.7062   4.7063   4.7074   4.7705   4.7709   4.7750   4.7753
     4.8025   4.8029   6.1378   6.1384   6.1420   6.1431   6.2231   6.2235
     6.2236   6.2247   7.5392   7.5398   7.5412   7.5421   7.6406   7.6410
     7.8550   7.8552   7.8552   7.8565   8.9780   8.9781   8.9786   8.9795
     9.3378   9.3389

          k =-0.5000 0.1667 0.5000 ( 12456 PWs)   bands (ev):

    -2.0443  -2.0416  -2.0393  -2.0370  -0.5529  -0.5502  -0.5479  -0.5456
     0.9226   0.9253   0.9276   0.9299   2.3760   2.3767   2.3781   2.3805
     2.3815   2.3819   2.3831   2.3851   3.8157   3.8164   3.8179   3.8202
     3.8213   3.8216   3.8228   3.8248   5.1698   5.1726   5.1751   5.1775
     5.2743   5.2752   5.2765   5.2789   5.2798   5.2805   5.2816   5.2836
     6.6667   6.6680   6.6693   6.6703   8.0980   8.0995   8.1006   8.1018
     8.4082   8.4108   8.4126   8.4148   9.3870   9.3884   9.3890   9.3917
     9.3928   9.3946

          k =-0.5000 0.5000 0.1667 ( 12456 PWs)   bands (ev):

    -2.0427  -2.0416  -2.0391  -2.0389  -0.5512  -0.5501  -0.5476  -0.5475
     0.9242   0.9253   0.9278   0.9280   2.3766   2.3779   2.3785   2.3800
     2.3806   2.3823   2.3831   2.3838   3.8163   3.8177   3.8181   3.8197
     3.8204   3.8220   3.8230   3.8235   5.1715   5.1727   5.1753   5.1755
     5.2751   5.2763   5.2770   5.2783   5.2792   5.2808   5.2815   5.2822
     6.6675   6.6681   6.6693   6.6694   8.0988   8.0994   8.1007   8.1009
     8.4097   8.4107   8.4130   8.4131   9.3873   9.3889   9.3895   9.3913
     9.3924   9.3941

     the Fermi energy is     7.8157 ev

!    total energy              =   -1264.06433677 Ry
     Harris-Foulkes estimate   =   -1264.06433712 Ry
     estimated scf accuracy    <       0.00000029 Ry

     total all-electron energy =    -15540.633314 Ry

     The total energy is the sum of the following terms:

     one-electron contribution =     101.26027148 Ry
     hartree contribution      =       0.20238804 Ry
     xc contribution           =     -82.91774394 Ry
     ewald contribution        =    -172.93188273 Ry
     one-center paw contrib.   =   -1109.68003893 Ry
     smearing contrib. (-TS)   =       0.00266932 Ry

     convergence has been achieved in   9 iterations

     Forces acting on atoms (cartesian axes, Ry/au):

     atom    1 type  1   force =    -0.00000598    0.00000264    0.00001763
     atom    2 type  1   force =    -0.00009152    0.00021994    0.00008314
     atom    3 type  1   force =     0.00022376   -0.00003156   -0.00051649
     atom    4 type  1   force =    -0.00005563   -0.00016074   -0.00034865
     atom    5 type  1   force =    -0.00043845   -0.00039726    0.00032332
     atom    6 type  1   force =    -0.00014880    0.00043523    0.00000350
     atom    7 type  1   force =    -0.00015007   -0.00055283    0.00032703
     atom    8 type  1   force =     0.00001870   -0.00007533   -0.00025797
     atom    9 type  1   force =     0.00000765   -0.00007574    0.00011625
     atom   10 type  1   force =    -0.00016711   -0.00009288   -0.00068636
     atom   11 type  1   force =    -0.00024435   -0.00025495   -0.00039401
     atom   12 type  1   force =    -0.00008668    0.00002663   -0.00006838
     atom   13 type  1   force =    -0.00019383   -0.00032898   -0.00002630
     atom   14 type  1   force =    -0.00002921    0.00014613    0.00042525
     atom   15 type  1   force =    -0.00050924    0.00032688    0.00051700
     atom   16 type  1   force =     0.00062595    0.00049095    0.00013712
     atom   17 type  1   force =    -0.00044072    0.00002278    0.00009925
     atom   18 type  1   force =     0.00020730   -0.00004129    0.00042470
     atom   19 type  1   force =     0.00052461    0.00023443   -0.00009083
     atom   20 type  1   force =     0.00007227    0.00021524    0.00006392
     atom   21 type  1   force =     0.00019310   -0.00054488    0.00011686
     atom   22 type  1   force =    -0.00014504    0.00059483    0.00012918
     atom   23 type  1   force =     0.00011867   -0.00010720   -0.00022152
     atom   24 type  1   force =     0.00013186    0.00013873   -0.00008848
     atom   25 type  1   force =     0.00010646   -0.00016421    0.00033678
     atom   26 type  1   force =     0.00031146   -0.00023275   -0.00024615
     atom   27 type  1   force =    -0.00015934    0.00001761    0.00011171
     atom   28 type  1   force =    -0.00009032    0.00023921   -0.00006552
     atom   29 type  1   force =     0.00083394   -0.00033559   -0.00009384
     atom   30 type  1   force =    -0.00025793    0.00003785    0.00025300
     atom   31 type  1   force =    -0.00008594   -0.00004366   -0.00034813
     atom   32 type  1   force =    -0.00007556    0.00029077   -0.00003302

     Total force =     0.002736     Total SCF correction =     0.000497
     SCF correction compared to forces is large: reduce conv_thr to get better values


     Computing stress (Cartesian axis) and pressure

          total   stress  (Ry/bohr**3)                   (kbar)     P=   -1.14
  -0.00000776  -0.00000000  -0.00000000         -1.14     -0.00     -0.00
  -0.00000000  -0.00000776   0.00000000         -0.00     -1.14      0.00
  -0.00000000   0.00000000  -0.00000776         -0.00      0.00     -1.14


     Writing output data file fe_scf_fcc_2.save/

     init_run     :     22.19s CPU     22.91s WALL (       1 calls)
     electrons    :    289.02s CPU    295.78s WALL (       1 calls)
     forces       :      9.79s CPU      9.81s WALL (       1 calls)
     stress       :     11.68s CPU     12.00s WALL (       1 calls)

     Called by init_run:
     wfcinit      :     21.59s CPU     22.29s WALL (       1 calls)
     potinit      :      0.40s CPU      0.41s WALL (       1 calls)
     hinit0       :      0.12s CPU      0.12s WALL (       1 calls)

     Called by electrons:
     c_bands      :    256.91s CPU    263.03s WALL (      10 calls)
     sum_band     :     28.00s CPU     28.59s WALL (      10 calls)
     v_of_rho     :      0.22s CPU      0.23s WALL (      10 calls)
     newd         :      0.65s CPU      0.66s WALL (      10 calls)
     PAW_pot      :      3.65s CPU      3.68s WALL (      10 calls)
     mix_rho      :      0.04s CPU      0.04s WALL (      10 calls)

     Called by c_bands:
     init_us_2    :      1.51s CPU      1.57s WALL (     322 calls)
     cegterg      :    252.64s CPU    258.59s WALL (     140 calls)

     Called by sum_band:
     sum_band:bec :      0.04s CPU      0.04s WALL (     140 calls)
     addusdens    :      0.52s CPU      0.54s WALL (      10 calls)

     Called by *egterg:
     h_psi        :    139.68s CPU    143.57s WALL (     496 calls)
     s_psi        :     52.48s CPU     53.78s WALL (     496 calls)
     g_psi        :      0.20s CPU      0.20s WALL (     342 calls)
     cdiaghg      :      5.65s CPU      5.75s WALL (     468 calls)

     Called by h_psi:
     h_psi:pot    :    139.22s CPU    142.96s WALL (     496 calls)
     h_psi:calbec :     62.26s CPU     63.45s WALL (     496 calls)
     vloc_psi     :     23.58s CPU     25.23s WALL (     496 calls)
     add_vuspsi   :     53.37s CPU     54.27s WALL (     496 calls)

     General routines
     calbec       :     96.03s CPU     97.63s WALL (     706 calls)
     fft          :      0.17s CPU      0.18s WALL (     136 calls)
     ffts         :      0.01s CPU      0.01s WALL (      10 calls)
     fftw         :     25.60s CPU     27.30s WALL (   53468 calls)

     Parallel routines
     fft_scatt_xy :      2.98s CPU      3.17s WALL (   53614 calls)
     fft_scatt_yz :      8.18s CPU      8.79s WALL (   53614 calls)

     PWSCF        :   5m33.28s CPU   5m41.24s WALL


   This run was terminated on:   5:56:59   8Apr2020            

=------------------------------------------------------------------------------=
   JOB DONE.
=------------------------------------------------------------------------------=
