
     Program PWSCF v.6.3 starts on 12Mar2020 at  0:56:29 

     This program is part of the open-source Quantum ESPRESSO suite
     for quantum simulation of materials; please cite
         "P. Giannozzi et al., J. Phys.:Condens. Matter 21 395502 (2009);
         "P. Giannozzi et al., J. Phys.:Condens. Matter 29 465901 (2017);
          URL http://www.quantum-espresso.org", 
     in publications or presentations arising from this work. More details at
     http://www.quantum-espresso.org/quote

     Parallel version (MPI & OpenMP), running on      20 processor cores
     Number of MPI processes:                20
     Threads/MPI process:                     1

     MPI processes distributed on     1 nodes
     R & G space division:  proc/nbgrp/npool/nimage =      20
     Reading input from wd/ecut/file_000038.in
Warning: card &IONS ignored
Warning: card ION_DYNAMICS = 'BFGS', ignored
Warning: card / ignored
Warning: card &CELL ignored
Warning: card CELL_DYNAMICS = 'BFGS', ignored
Warning: card CELL_FACTOR = 2.0, ignored
Warning: card PRESS = 0.0, ignored
Warning: card / ignored

     Current dimensions of program PWSCF are:
     Max number of different atomic species (ntypx) = 10
     Max number of k-points (npk) =  40000
     Max angular momentum in pseudopotentials (lmaxx) =  3
     Message from routine read_upf::
     Pseudo file /rds/homes/b/bxp912/pp/Al.pbe-nl-kjpaw_psl.1.0.0.UPF has been successfully fixed on the fly.
To avoid this message in the future you can permanently fix 
 your pseudo files following instructions given in: 
https://gitlab.com/QEF/q-e/blob/master/upftools/how_to_fix_upf.md
               file Al.pbe-nl-kjpaw_psl.1.0.0.UPF: wavefunction(s)  3S 3P renormalized

     Subspace diagonalization in iterative solution of the eigenvalue problem:
     a serial algorithm will be used

 
     Parallelization info
     --------------------
     sticks:   dense  smooth     PW     G-vecs:    dense   smooth      PW
     Min          97      97     42                 3229     3229     929
     Max          98      98     44                 3232     3232     933
     Sum        1941    1941    853                64589    64589   18613
 


     bravais-lattice index     =            0
     lattice parameter (alat)  =      15.2712  a.u.
     unit-cell volume          =    3561.3897 (a.u.)^3
     number of atoms/cell      =           32
     number of atomic types    =            1
     number of electrons       =        96.00
     number of Kohn-Sham states=           58
     kinetic-energy cutoff     =      41.0000  Ry
     charge density cutoff     =     105.0000  Ry
     convergence threshold     =      1.0E-06
     mixing beta               =       0.1000
     number of iterations used =           10  TF        mixing
     Exchange-correlation      = SLA PW PBX PBC ( 1  4  3  4 0 0)

     celldm(1)=  15.271200  celldm(2)=   0.000000  celldm(3)=   0.000000
     celldm(4)=   0.000000  celldm(5)=   0.000000  celldm(6)=   0.000000

     crystal axes: (cart. coord. in units of alat)
               a(1) = (   1.000000   0.000000   0.000000 )  
               a(2) = (   0.000000   1.000000   0.000000 )  
               a(3) = (   0.000000   0.000000   1.000000 )  

     reciprocal axes: (cart. coord. in units 2 pi/alat)
               b(1) = (  1.000000  0.000000  0.000000 )  
               b(2) = (  0.000000  1.000000  0.000000 )  
               b(3) = (  0.000000  0.000000  1.000000 )  


     PseudoPot. # 1 for Al read from file:
     /rds/homes/b/bxp912/pp/Al.pbe-nl-kjpaw_psl.1.0.0.UPF
     MD5 check sum: 339dbea23cf3ab9a065ad45c0f9085d7
     Pseudo is Projector augmented-wave + core cor, Zval =  3.0
     Generated using "atomic" code by A. Dal Corso v.5.1
     Shape of augmentation charge: PSQ
     Using radial grid of 1135 points,  4 beta functions with: 
                l(1) =   0
                l(2) =   0
                l(3) =   1
                l(4) =   1
     Q(r) pseudized with 0 coefficients 


     atomic species   valence    mass     pseudopotential
        Al             3.00    26.98200     Al( 1.00)

     No symmetry found



   Cartesian axes

     site n.     atom                  positions (alat units)
         1           Al  tau(   1) = (  -0.0000327   0.0000095   0.0000680  )
         2           Al  tau(   2) = (   0.2500796   0.2498100   0.0000703  )
         3           Al  tau(   3) = (   0.2499071   0.0000305   0.2502955  )
         4           Al  tau(   4) = (  -0.0000200   0.2502187   0.2501837  )
         5           Al  tau(   5) = (   0.0002558   0.0002521   0.4998810  )
         6           Al  tau(   6) = (   0.2501194   0.2498326   0.5000036  )
         7           Al  tau(   7) = (   0.2500278   0.0001539   0.7498880  )
         8           Al  tau(   8) = (   0.0000549   0.2501136   0.7502101  )
         9           Al  tau(   9) = (   0.0002375   0.5001078  -0.0000154  )
        10           Al  tau(  10) = (   0.2501396   0.7501762   0.0004054  )
        11           Al  tau(  11) = (   0.2501891   0.5001088   0.2502510  )
        12           Al  tau(  12) = (   0.0000383   0.7500455   0.2500253  )
        13           Al  tau(  13) = (   0.0001102   0.5001562   0.5000990  )
        14           Al  tau(  14) = (   0.2499640   0.7500632   0.4998706  )
        15           Al  tau(  15) = (   0.2503366   0.4997894   0.7496960  )
        16           Al  tau(  16) = (  -0.0003280   0.7497055   0.7499931  )
        17           Al  tau(  17) = (   0.5002037  -0.0001004  -0.0000387  )
        18           Al  tau(  18) = (   0.7499123   0.2500941  -0.0002332  )
        19           Al  tau(  19) = (   0.7496354  -0.0000959   0.2500771  )
        20           Al  tau(  20) = (   0.4999751   0.2499614   0.2498317  )
        21           Al  tau(  21) = (   0.4999211   0.0002929   0.4999726  )
        22           Al  tau(  22) = (   0.7500684   0.2496958   0.4999523  )
        23           Al  tau(  23) = (   0.7500357  -0.0000687   0.7500257  )
        24           Al  tau(  24) = (   0.5000114   0.2498864   0.7499948  )
        25           Al  tau(  25) = (   0.4998526   0.5001156  -0.0002192  )
        26           Al  tau(  26) = (   0.7497723   0.7500978   0.0002736  )
        27           Al  tau(  27) = (   0.7501007   0.4998018   0.2499462  )
        28           Al  tau(  28) = (   0.5000878   0.7497908   0.2502093  )
        29           Al  tau(  29) = (   0.4996761   0.5001027   0.5000404  )
        30           Al  tau(  30) = (   0.7501658   0.7499872   0.4998547  )
        31           Al  tau(  31) = (   0.7499472   0.5000095   0.7501393  )
        32           Al  tau(  32) = (   0.5000142   0.7499486   0.7499177  )

     number of k points=    14  Marzari-Vanderbilt smearing, width (Ry)=  0.0200
                       cart. coord. in units 2pi/alat
        k(    1) = (   0.1666667   0.1666667   0.1666667), wk =   0.1481481
        k(    2) = (   0.1666667   0.1666667  -0.5000000), wk =   0.1481481
        k(    3) = (   0.1666667  -0.5000000  -0.5000000), wk =   0.1481481
        k(    4) = (  -0.5000000  -0.5000000  -0.5000000), wk =   0.0740741
        k(    5) = (  -0.1666667  -0.1666667   0.1666667), wk =   0.1481481
        k(    6) = (  -0.1666667   0.1666667  -0.1666667), wk =   0.1481481
        k(    7) = (   0.1666667  -0.1666667  -0.1666667), wk =   0.1481481
        k(    8) = (  -0.1666667   0.1666667   0.5000000), wk =   0.1481481
        k(    9) = (  -0.5000000  -0.1666667   0.1666667), wk =   0.1481481
        k(   10) = (   0.5000000  -0.1666667  -0.1666667), wk =   0.1481481
        k(   11) = (  -0.1666667  -0.5000000   0.1666667), wk =   0.1481481
        k(   12) = (  -0.1666667   0.5000000  -0.1666667), wk =   0.1481481
        k(   13) = (  -0.5000000   0.1666667   0.5000000), wk =   0.1481481
        k(   14) = (  -0.5000000   0.5000000   0.1666667), wk =   0.1481481

     Dense  grid:    64589 G-vectors     FFT dimensions: (  50,  50,  50)

     Estimated max dynamical RAM per process >      27.25 MB

     Estimated total dynamical RAM >     545.05 MB

     Initial potential from superposition of free atoms

     starting charge   95.92671, renormalised to   96.00000
     Starting wfcs are  128 randomized atomic wfcs
     Checking if some PAW data can be deallocated... 

     total cpu time spent up to now is        2.7 secs

     Self-consistent Calculation

     iteration #  1     ecut=    41.00 Ry     beta= 0.10
     Davidson diagonalization with overlap
     ethr =  1.00E-02,  avg # of iterations =  3.0

     Threshold (ethr) on eigenvalues was too large:
     Diagonalizing with lowered threshold

     Davidson diagonalization with overlap
     ethr =  1.93E-04,  avg # of iterations =  3.6

     total cpu time spent up to now is       19.0 secs

     total energy              =   -1264.10901565 Ry
     Harris-Foulkes estimate   =   -1264.11518029 Ry
     estimated scf accuracy    <       0.18065373 Ry

     iteration #  2     ecut=    41.00 Ry     beta= 0.10
     Davidson diagonalization with overlap
     ethr =  1.88E-04,  avg # of iterations =  1.0

     total cpu time spent up to now is       21.1 secs

     total energy              =   -1264.06208906 Ry
     Harris-Foulkes estimate   =   -1264.10981820 Ry
     estimated scf accuracy    <       0.15687281 Ry

     iteration #  3     ecut=    41.00 Ry     beta= 0.10
     Davidson diagonalization with overlap
     ethr =  1.63E-04,  avg # of iterations =  1.0

     total cpu time spent up to now is       23.1 secs

     total energy              =   -1264.06503107 Ry
     Harris-Foulkes estimate   =   -1264.06514079 Ry
     estimated scf accuracy    <       0.00062384 Ry

     iteration #  4     ecut=    41.00 Ry     beta= 0.10
     Davidson diagonalization with overlap
     c_bands:  1 eigenvalues not converged
     ethr =  6.50E-07,  avg # of iterations =  5.1

     total cpu time spent up to now is       27.4 secs

     total energy              =   -1264.06563497 Ry
     Harris-Foulkes estimate   =   -1264.06581297 Ry
     estimated scf accuracy    <       0.00034678 Ry

     iteration #  5     ecut=    41.00 Ry     beta= 0.10
     Davidson diagonalization with overlap
     ethr =  3.61E-07,  avg # of iterations =  1.6

     total cpu time spent up to now is       29.5 secs

     total energy              =   -1264.06544791 Ry
     Harris-Foulkes estimate   =   -1264.06564539 Ry
     estimated scf accuracy    <       0.00022375 Ry

     iteration #  6     ecut=    41.00 Ry     beta= 0.10
     Davidson diagonalization with overlap
     ethr =  2.33E-07,  avg # of iterations =  2.0

     total cpu time spent up to now is       32.3 secs

     total energy              =   -1264.06551094 Ry
     Harris-Foulkes estimate   =   -1264.06551164 Ry
     estimated scf accuracy    <       0.00001445 Ry

     iteration #  7     ecut=    41.00 Ry     beta= 0.10
     Davidson diagonalization with overlap
     ethr =  1.51E-08,  avg # of iterations =  2.3

     total cpu time spent up to now is       34.6 secs

     total energy              =   -1264.06550271 Ry
     Harris-Foulkes estimate   =   -1264.06551187 Ry
     estimated scf accuracy    <       0.00000573 Ry

     iteration #  8     ecut=    41.00 Ry     beta= 0.10
     Davidson diagonalization with overlap
     ethr =  5.97E-09,  avg # of iterations =  2.3

     total cpu time spent up to now is       37.3 secs

     total energy              =   -1264.06550387 Ry
     Harris-Foulkes estimate   =   -1264.06550353 Ry
     estimated scf accuracy    <       0.00000121 Ry

     iteration #  9     ecut=    41.00 Ry     beta= 0.10
     Davidson diagonalization with overlap
     ethr =  1.26E-09,  avg # of iterations =  1.9

     total cpu time spent up to now is       39.5 secs

     End of self-consistent calculation

          k = 0.1667 0.1667 0.1667 ( 15801 PWs)   bands (ev):

    -3.0437  -1.5446  -1.5421  -1.5391  -0.0598  -0.0589  -0.0567  -0.0556
    -0.0542  -0.0506   1.4107   1.4119   1.4140   1.4153   1.4163   1.4170
     1.4192   2.8649   2.8667   2.8680   2.8687   2.8706   2.8732   4.2327
     4.2334   4.2341   4.3297   4.3304   4.3312   5.6412   5.6416   5.6445
     5.6452   5.6466   5.6479   5.7578   7.0586   7.0590   7.0607   7.0624
     7.0633   7.0641   7.0721   7.0746   7.0778   7.4043   7.4051   7.4058
     8.4758   8.4764   8.4780   8.4794   8.4807   8.4813   8.8158   8.8168
     8.8187   8.8195

          k = 0.1667 0.1667-0.5000 ( 15778 PWs)   bands (ev):

    -2.5426  -2.5401  -1.0466  -1.0458  -1.0442  -1.0426   0.4322   0.4340
     0.4357   0.4367   0.4383   0.4390   1.8944   1.8957   1.9003   1.9010
     1.9028   1.9036   3.3434   3.3444   3.3448   3.3451   3.3474   3.3494
     4.7048   4.7053   4.7072   4.7080   4.7714   4.7727   4.7727   4.7739
     4.8019   4.8031   6.1383   6.1390   6.1407   6.1424   6.2224   6.2230
     6.2237   6.2246   7.5386   7.5392   7.5409   7.5425   7.6398   7.6411
     7.8535   7.8542   7.8558   7.8569   8.9772   8.9774   8.9786   8.9794
     9.3365   9.3372

          k = 0.1667-0.5000-0.5000 ( 15776 PWs)   bands (ev):

    -2.0431  -2.0421  -2.0396  -2.0383  -0.5516  -0.5506  -0.5482  -0.5468
     0.9238   0.9248   0.9272   0.9286   2.3763   2.3776   2.3784   2.3793
     2.3802   2.3823   2.3833   2.3840   3.8159   3.8173   3.8181   3.8191
     3.8198   3.8221   3.8231   3.8237   5.1711   5.1722   5.1748   5.1762
     5.2747   5.2760   5.2766   5.2776   5.2787   5.2807   5.2818   5.2824
     6.6670   6.6676   6.6689   6.6696   8.0984   8.0990   8.1002   8.1009
     8.4092   8.4101   8.4122   8.4134   9.3863   9.3886   9.3895   9.3908
     9.3926   9.3942

          k =-0.5000-0.5000-0.5000 ( 15624 PWs)   bands (ev):

    -1.5467  -1.5459  -1.5433  -1.5427  -1.5415  -1.5396  -1.5392  -1.5365
     2.8555   2.8559   2.8572   2.8578   2.8590   2.8600   2.8602   2.8612
     2.8614   2.8621   2.8624   2.8630   2.8633   2.8637   2.8643   2.8645
     2.8654   2.8663   2.8668   2.8671   2.8679   2.8695   2.8709   2.8730
     7.1477   7.1487   7.1494   7.1500   7.1512   7.1517   7.1522   7.1525
     7.1526   7.1533   7.1545   7.1550   7.1557   7.1559   7.1562   7.1569
     7.1573   7.1580   7.1584   7.1586   7.1596   7.1603   7.1620   7.1622
    11.3515  11.3527

          k =-0.1667-0.1667 0.1667 ( 15801 PWs)   bands (ev):

    -3.0437  -1.5440  -1.5421  -1.5396  -0.0595  -0.0582  -0.0569  -0.0554
    -0.0531  -0.0528   1.4102   1.4133   1.4138   1.4147   1.4161   1.4170
     1.4193   2.8658   2.8668   2.8675   2.8688   2.8703   2.8729   4.2330
     4.2335   4.2339   4.3300   4.3304   4.3309   5.6403   5.6433   5.6439
     5.6449   5.6466   5.6481   5.7578   7.0587   7.0601   7.0610   7.0619
     7.0628   7.0637   7.0726   7.0747   7.0772   7.4046   7.4051   7.4055
     8.4761   8.4773   8.4783   8.4791   8.4797   8.4812   8.8152   8.8166
     8.8183   8.8199

          k =-0.1667 0.1667-0.1667 ( 15801 PWs)   bands (ev):

    -3.0437  -1.5445  -1.5419  -1.5393  -0.0600  -0.0585  -0.0563  -0.0552
    -0.0537  -0.0521   1.4112   1.4118   1.4134   1.4146   1.4166   1.4177
     1.4191   2.8661   2.8665   2.8673   2.8686   2.8708   2.8728   4.2327
     4.2334   4.2342   4.3296   4.3304   4.3313   5.6414   5.6420   5.6433
     5.6445   5.6472   5.6488   5.7578   7.0588   7.0597   7.0604   7.0622
     7.0633   7.0642   7.0722   7.0747   7.0774   7.4042   7.4051   7.4059
     8.4760   8.4768   8.4776   8.4796   8.4803   8.4813   8.8153   8.8160
     8.8174   8.8191

          k = 0.1667-0.1667-0.1667 ( 15801 PWs)   bands (ev):

    -3.0437  -1.5442  -1.5426  -1.5390  -0.0600  -0.0582  -0.0568  -0.0562
    -0.0549  -0.0499   1.4113   1.4118   1.4129   1.4149   1.4159   1.4166
     1.4209   2.8651   2.8662   2.8674   2.8692   2.8702   2.8740   4.2326
     4.2334   4.2343   4.3295   4.3304   4.3314   5.6411   5.6422   5.6436
     5.6450   5.6464   5.6489   5.7578   7.0583   7.0598   7.0603   7.0620
     7.0626   7.0644   7.0729   7.0744   7.0779   7.4042   7.4051   7.4060
     8.4754   8.4772   8.4778   8.4796   8.4801   8.4815   8.8155   8.8168
     8.8175   8.8192

          k =-0.1667 0.1667 0.5000 ( 15778 PWs)   bands (ev):

    -2.5426  -2.5401  -1.0471  -1.0451  -1.0446  -1.0423   0.4325   0.4335
     0.4353   0.4368   0.4382   0.4396   1.8942   1.8955   1.9002   1.9014
     1.9026   1.9039   3.3431   3.3442   3.3449   3.3461   3.3471   3.3491
     4.7044   4.7057   4.7070   4.7083   4.7711   4.7722   4.7730   4.7742
     4.8019   4.8032   6.1377   6.1398   6.1403   6.1427   6.2220   6.2231
     6.2238   6.2249   7.5384   7.5395   7.5409   7.5423   7.6398   7.6411
     7.8530   7.8546   7.8556   7.8571   8.9768   8.9778   8.9786   8.9794
     9.3373   9.3384

          k =-0.5000-0.1667 0.1667 ( 15778 PWs)   bands (ev):

    -2.5427  -2.5400  -1.0477  -1.0450  -1.0441  -1.0424   0.4326   0.4345
     0.4353   0.4367   0.4377   0.4391   1.8944   1.8954   1.9004   1.9009
     1.9027   1.9040   3.3429   3.3441   3.3452   3.3463   3.3468   3.3491
     4.7048   4.7051   4.7071   4.7084   4.7709   4.7722   4.7733   4.7745
     4.8017   4.8031   6.1371   6.1399   6.1408   6.1426   6.2223   6.2230
     6.2233   6.2251   7.5379   7.5396   7.5413   7.5423   7.6397   7.6412
     7.8535   7.8540   7.8555   7.8573   8.9767   8.9778   8.9781   8.9800
     9.3370   9.3394

          k = 0.5000-0.1667-0.1667 ( 15778 PWs)   bands (ev):

    -2.5427  -2.5400  -1.0481  -1.0449  -1.0442  -1.0420   0.4313   0.4341
     0.4351   0.4367   0.4377   0.4410   1.8945   1.8953   1.8999   1.9014
     1.9030   1.9038   3.3423   3.3436   3.3452   3.3463   3.3474   3.3497
     4.7044   4.7055   4.7072   4.7083   4.7702   4.7716   4.7738   4.7749
     4.8019   4.8033   6.1367   6.1400   6.1407   6.1430   6.2220   6.2232
     6.2238   6.2248   7.5381   7.5394   7.5405   7.5431   7.6397   7.6411
     7.8529   7.8545   7.8558   7.8571   8.9768   8.9777   8.9787   8.9794
     9.3365   9.3390

          k =-0.1667-0.5000 0.1667 ( 15778 PWs)   bands (ev):

    -2.5417  -2.5411  -1.0470  -1.0464  -1.0437  -1.0421   0.4328   0.4336
     0.4355   0.4358   0.4381   0.4402   1.8946   1.8952   1.9015   1.9017
     1.9022   1.9026   3.3427   3.3430   3.3462   3.3466   3.3476   3.3484
     4.7060   4.7061   4.7066   4.7067   4.7707   4.7709   4.7742   4.7747
     4.8024   4.8027   6.1379   6.1384   6.1412   6.1429   6.2231   6.2232
     6.2236   6.2237   7.5386   7.5399   7.5410   7.5416   7.6402   7.6406
     7.8547   7.8548   7.8553   7.8555   8.9778   8.9779   8.9784   8.9785
     9.3371   9.3386

          k =-0.1667 0.5000-0.1667 ( 15778 PWs)   bands (ev):

    -2.5417  -2.5411  -1.0473  -1.0467  -1.0431  -1.0421   0.4328   0.4337
     0.4359   0.4367   0.4376   0.4393   1.8945   1.8951   1.9015   1.9018
     1.9020   1.9028   3.3423   3.3427   3.3461   3.3467   3.3482   3.3485
     4.7060   4.7060   4.7061   4.7072   4.7703   4.7707   4.7748   4.7751
     4.8023   4.8026   6.1376   6.1382   6.1418   6.1428   6.2228   6.2232
     6.2233   6.2244   7.5389   7.5395   7.5409   7.5418   7.6402   7.6406
     7.8546   7.8548   7.8548   7.8561   8.9776   8.9777   8.9782   8.9791
     9.3372   9.3391

          k =-0.5000 0.1667 0.5000 ( 15776 PWs)   bands (ev):

    -2.0445  -2.0418  -2.0395  -2.0373  -0.5531  -0.5504  -0.5481  -0.5458
     0.9224   0.9251   0.9274   0.9297   2.3758   2.3765   2.3780   2.3803
     2.3813   2.3817   2.3829   2.3849   3.8155   3.8162   3.8177   3.8200
     3.8211   3.8214   3.8226   3.8246   5.1696   5.1724   5.1749   5.1773
     5.2741   5.2750   5.2762   5.2786   5.2796   5.2802   5.2813   5.2834
     6.6664   6.6677   6.6690   6.6700   8.0977   8.0991   8.1002   8.1014
     8.4078   8.4104   8.4122   8.4144   9.3860   9.3873   9.3887   9.3919
     9.3927   9.3936

          k =-0.5000 0.5000 0.1667 ( 15776 PWs)   bands (ev):

    -2.0429  -2.0418  -2.0393  -2.0391  -0.5514  -0.5503  -0.5478  -0.5477
     0.9240   0.9251   0.9276   0.9278   2.3764   2.3778   2.3783   2.3798
     2.3805   2.3821   2.3830   2.3836   3.8161   3.8175   3.8180   3.8196
     3.8202   3.8218   3.8228   3.8233   5.1713   5.1725   5.1751   5.1753
     5.2748   5.2761   5.2768   5.2781   5.2789   5.2806   5.2812   5.2820
     6.6672   6.6678   6.6690   6.6691   8.0984   8.0991   8.1004   8.1005
     8.4093   8.4103   8.4126   8.4127   9.3866   9.3889   9.3899   9.3922
     9.3935   9.3946

     the Fermi energy is     7.8154 ev

!    total energy              =   -1264.06550355 Ry
     Harris-Foulkes estimate   =   -1264.06550395 Ry
     estimated scf accuracy    <       0.00000030 Ry

     total all-electron energy =    -15540.634526 Ry

     The total energy is the sum of the following terms:

     one-electron contribution =     101.25819903 Ry
     hartree contribution      =       0.20235069 Ry
     xc contribution           =     -82.91753027 Ry
     ewald contribution        =    -172.93188273 Ry
     one-center paw contrib.   =   -1109.67930592 Ry
     smearing contrib. (-TS)   =       0.00266565 Ry

     convergence has been achieved in   9 iterations

     Forces acting on atoms (cartesian axes, Ry/au):

     atom    1 type  1   force =    -0.00000646    0.00000313    0.00001776
     atom    2 type  1   force =    -0.00009158    0.00021983    0.00008259
     atom    3 type  1   force =     0.00022393   -0.00003262   -0.00051697
     atom    4 type  1   force =    -0.00005746   -0.00016001   -0.00034954
     atom    5 type  1   force =    -0.00043793   -0.00039724    0.00032313
     atom    6 type  1   force =    -0.00014958    0.00043605    0.00000502
     atom    7 type  1   force =    -0.00014952   -0.00055377    0.00032697
     atom    8 type  1   force =     0.00001837   -0.00007502   -0.00025926
     atom    9 type  1   force =     0.00000873   -0.00007645    0.00011614
     atom   10 type  1   force =    -0.00016576   -0.00009314   -0.00068885
     atom   11 type  1   force =    -0.00024543   -0.00025431   -0.00039516
     atom   12 type  1   force =    -0.00008646    0.00002587   -0.00006866
     atom   13 type  1   force =    -0.00019668   -0.00033009   -0.00002577
     atom   14 type  1   force =    -0.00002921    0.00014683    0.00042573
     atom   15 type  1   force =    -0.00050888    0.00032664    0.00051895
     atom   16 type  1   force =     0.00062665    0.00048882    0.00013966
     atom   17 type  1   force =    -0.00044283    0.00002086    0.00009889
     atom   18 type  1   force =     0.00020801   -0.00003969    0.00042387
     atom   19 type  1   force =     0.00052611    0.00023444   -0.00009167
     atom   20 type  1   force =     0.00007182    0.00021596    0.00006432
     atom   21 type  1   force =     0.00019158   -0.00054505    0.00011756
     atom   22 type  1   force =    -0.00014529    0.00059755    0.00012860
     atom   23 type  1   force =     0.00011738   -0.00010841   -0.00022171
     atom   24 type  1   force =     0.00013152    0.00013879   -0.00008887
     atom   25 type  1   force =     0.00010829   -0.00016226    0.00033685
     atom   26 type  1   force =     0.00031191   -0.00023410   -0.00024668
     atom   27 type  1   force =    -0.00015837    0.00001745    0.00011205
     atom   28 type  1   force =    -0.00008993    0.00023943   -0.00006549
     atom   29 type  1   force =     0.00083609   -0.00033492   -0.00009203
     atom   30 type  1   force =    -0.00025855    0.00003559    0.00025326
     atom   31 type  1   force =    -0.00008611   -0.00004138   -0.00034761
     atom   32 type  1   force =    -0.00007438    0.00029124   -0.00003309

     Total force =     0.002740     Total SCF correction =     0.000514
     SCF correction compared to forces is large: reduce conv_thr to get better values


     Computing stress (Cartesian axis) and pressure

          total   stress  (Ry/bohr**3)                   (kbar)     P=   -0.97
  -0.00000658   0.00000000  -0.00000000         -0.97      0.00     -0.00
   0.00000000  -0.00000657  -0.00000000          0.00     -0.97     -0.00
  -0.00000000  -0.00000000  -0.00000658         -0.00     -0.00     -0.97


     Writing output data file fe_scf_fcc_2.save/
 
     init_run     :      1.78s CPU      1.96s WALL (       1 calls)
     electrons    :     26.01s CPU     36.78s WALL (       1 calls)
     forces       :      0.43s CPU      0.45s WALL (       1 calls)
     stress       :      2.14s CPU      2.14s WALL (       1 calls)

     Called by init_run:
     wfcinit      :      1.57s CPU      1.60s WALL (       1 calls)
     potinit      :      0.12s CPU      0.12s WALL (       1 calls)
     hinit0       :      0.07s CPU      0.22s WALL (       1 calls)

     Called by electrons:
     c_bands      :     22.04s CPU     32.65s WALL (      10 calls)
     sum_band     :      2.94s CPU      3.04s WALL (      10 calls)
     v_of_rho     :      0.08s CPU      0.08s WALL (      10 calls)
     newd         :      0.05s CPU      0.06s WALL (      10 calls)
     PAW_pot      :      0.98s CPU      0.98s WALL (      10 calls)
     mix_rho      :      0.02s CPU      0.02s WALL (      10 calls)

     Called by c_bands:
     init_us_2    :      0.63s CPU      0.64s WALL (     322 calls)
     cegterg      :     20.42s CPU     20.84s WALL (     140 calls)

     Called by sum_band:
     sum_band:bec :      0.02s CPU      0.02s WALL (     140 calls)
     addusdens    :      0.05s CPU      0.05s WALL (      10 calls)

     Called by *egterg:
     h_psi        :     13.84s CPU     14.19s WALL (     489 calls)
     s_psi        :      1.40s CPU      1.41s WALL (     489 calls)
     g_psi        :      0.07s CPU      0.07s WALL (     335 calls)
     cdiaghg      :      2.85s CPU      2.86s WALL (     461 calls)

     Called by h_psi:
     h_psi:pot    :     13.73s CPU     14.09s WALL (     489 calls)
     h_psi:calbec :      1.69s CPU      1.77s WALL (     489 calls)
     vloc_psi     :     10.62s CPU     10.88s WALL (     489 calls)
     add_vuspsi   :      1.42s CPU      1.43s WALL (     489 calls)

     General routines
     calbec       :      2.83s CPU      2.93s WALL (     699 calls)
     fft          :      0.13s CPU      0.28s WALL (     137 calls)
     ffts         :      0.01s CPU      0.01s WALL (      10 calls)
     fftw         :     11.85s CPU     12.16s WALL (   53508 calls)
 
     Parallel routines
     fft_scatt_xy :      0.87s CPU      0.89s WALL (   53655 calls)
     fft_scatt_yz :      7.46s CPU      7.73s WALL (   53655 calls)
 
     PWSCF        :    31.28s CPU        42.54s WALL

 
   This run was terminated on:   0:57:12  12Mar2020            

=------------------------------------------------------------------------------=
   JOB DONE.
=------------------------------------------------------------------------------=
