
     Program PWSCF v.6.3 starts on 12Mar2020 at  0:59:18 

     This program is part of the open-source Quantum ESPRESSO suite
     for quantum simulation of materials; please cite
         "P. Giannozzi et al., J. Phys.:Condens. Matter 21 395502 (2009);
         "P. Giannozzi et al., J. Phys.:Condens. Matter 29 465901 (2017);
          URL http://www.quantum-espresso.org", 
     in publications or presentations arising from this work. More details at
     http://www.quantum-espresso.org/quote

     Parallel version (MPI & OpenMP), running on      20 processor cores
     Number of MPI processes:                20
     Threads/MPI process:                     1

     MPI processes distributed on     1 nodes
     R & G space division:  proc/nbgrp/npool/nimage =      20
     Reading input from wd/ecut/file_000043.in
Warning: card &IONS ignored
Warning: card ION_DYNAMICS = 'BFGS', ignored
Warning: card / ignored
Warning: card &CELL ignored
Warning: card CELL_DYNAMICS = 'BFGS', ignored
Warning: card CELL_FACTOR = 2.0, ignored
Warning: card PRESS = 0.0, ignored
Warning: card / ignored

     Current dimensions of program PWSCF are:
     Max number of different atomic species (ntypx) = 10
     Max number of k-points (npk) =  40000
     Max angular momentum in pseudopotentials (lmaxx) =  3
     Message from routine read_upf::
     Pseudo file /rds/homes/b/bxp912/pp/Al.pbe-nl-kjpaw_psl.1.0.0.UPF has been successfully fixed on the fly.
To avoid this message in the future you can permanently fix 
 your pseudo files following instructions given in: 
https://gitlab.com/QEF/q-e/blob/master/upftools/how_to_fix_upf.md
               file Al.pbe-nl-kjpaw_psl.1.0.0.UPF: wavefunction(s)  3S 3P renormalized

     Subspace diagonalization in iterative solution of the eigenvalue problem:
     a serial algorithm will be used

 
     Parallelization info
     --------------------
     sticks:   dense  smooth     PW     G-vecs:    dense   smooth      PW
     Min          97      97     37                 3229     3229     773
     Max          98      98     38                 3232     3232     778
     Sum        1941    1941    749                64589    64589   15515
 


     bravais-lattice index     =            0
     lattice parameter (alat)  =      15.2712  a.u.
     unit-cell volume          =    3561.3897 (a.u.)^3
     number of atoms/cell      =           32
     number of atomic types    =            1
     number of electrons       =        96.00
     number of Kohn-Sham states=           58
     kinetic-energy cutoff     =      36.0000  Ry
     charge density cutoff     =     105.0000  Ry
     convergence threshold     =      1.0E-06
     mixing beta               =       0.1000
     number of iterations used =           10  TF        mixing
     Exchange-correlation      = SLA PW PBX PBC ( 1  4  3  4 0 0)

     celldm(1)=  15.271200  celldm(2)=   0.000000  celldm(3)=   0.000000
     celldm(4)=   0.000000  celldm(5)=   0.000000  celldm(6)=   0.000000

     crystal axes: (cart. coord. in units of alat)
               a(1) = (   1.000000   0.000000   0.000000 )  
               a(2) = (   0.000000   1.000000   0.000000 )  
               a(3) = (   0.000000   0.000000   1.000000 )  

     reciprocal axes: (cart. coord. in units 2 pi/alat)
               b(1) = (  1.000000  0.000000  0.000000 )  
               b(2) = (  0.000000  1.000000  0.000000 )  
               b(3) = (  0.000000  0.000000  1.000000 )  


     PseudoPot. # 1 for Al read from file:
     /rds/homes/b/bxp912/pp/Al.pbe-nl-kjpaw_psl.1.0.0.UPF
     MD5 check sum: 339dbea23cf3ab9a065ad45c0f9085d7
     Pseudo is Projector augmented-wave + core cor, Zval =  3.0
     Generated using "atomic" code by A. Dal Corso v.5.1
     Shape of augmentation charge: PSQ
     Using radial grid of 1135 points,  4 beta functions with: 
                l(1) =   0
                l(2) =   0
                l(3) =   1
                l(4) =   1
     Q(r) pseudized with 0 coefficients 


     atomic species   valence    mass     pseudopotential
        Al             3.00    26.98200     Al( 1.00)

     No symmetry found



   Cartesian axes

     site n.     atom                  positions (alat units)
         1           Al  tau(   1) = (  -0.0000327   0.0000095   0.0000680  )
         2           Al  tau(   2) = (   0.2500796   0.2498100   0.0000703  )
         3           Al  tau(   3) = (   0.2499071   0.0000305   0.2502955  )
         4           Al  tau(   4) = (  -0.0000200   0.2502187   0.2501837  )
         5           Al  tau(   5) = (   0.0002558   0.0002521   0.4998810  )
         6           Al  tau(   6) = (   0.2501194   0.2498326   0.5000036  )
         7           Al  tau(   7) = (   0.2500278   0.0001539   0.7498880  )
         8           Al  tau(   8) = (   0.0000549   0.2501136   0.7502101  )
         9           Al  tau(   9) = (   0.0002375   0.5001078  -0.0000154  )
        10           Al  tau(  10) = (   0.2501396   0.7501762   0.0004054  )
        11           Al  tau(  11) = (   0.2501891   0.5001088   0.2502510  )
        12           Al  tau(  12) = (   0.0000383   0.7500455   0.2500253  )
        13           Al  tau(  13) = (   0.0001102   0.5001562   0.5000990  )
        14           Al  tau(  14) = (   0.2499640   0.7500632   0.4998706  )
        15           Al  tau(  15) = (   0.2503366   0.4997894   0.7496960  )
        16           Al  tau(  16) = (  -0.0003280   0.7497055   0.7499931  )
        17           Al  tau(  17) = (   0.5002037  -0.0001004  -0.0000387  )
        18           Al  tau(  18) = (   0.7499123   0.2500941  -0.0002332  )
        19           Al  tau(  19) = (   0.7496354  -0.0000959   0.2500771  )
        20           Al  tau(  20) = (   0.4999751   0.2499614   0.2498317  )
        21           Al  tau(  21) = (   0.4999211   0.0002929   0.4999726  )
        22           Al  tau(  22) = (   0.7500684   0.2496958   0.4999523  )
        23           Al  tau(  23) = (   0.7500357  -0.0000687   0.7500257  )
        24           Al  tau(  24) = (   0.5000114   0.2498864   0.7499948  )
        25           Al  tau(  25) = (   0.4998526   0.5001156  -0.0002192  )
        26           Al  tau(  26) = (   0.7497723   0.7500978   0.0002736  )
        27           Al  tau(  27) = (   0.7501007   0.4998018   0.2499462  )
        28           Al  tau(  28) = (   0.5000878   0.7497908   0.2502093  )
        29           Al  tau(  29) = (   0.4996761   0.5001027   0.5000404  )
        30           Al  tau(  30) = (   0.7501658   0.7499872   0.4998547  )
        31           Al  tau(  31) = (   0.7499472   0.5000095   0.7501393  )
        32           Al  tau(  32) = (   0.5000142   0.7499486   0.7499177  )

     number of k points=    14  Marzari-Vanderbilt smearing, width (Ry)=  0.0200
                       cart. coord. in units 2pi/alat
        k(    1) = (   0.1666667   0.1666667   0.1666667), wk =   0.1481481
        k(    2) = (   0.1666667   0.1666667  -0.5000000), wk =   0.1481481
        k(    3) = (   0.1666667  -0.5000000  -0.5000000), wk =   0.1481481
        k(    4) = (  -0.5000000  -0.5000000  -0.5000000), wk =   0.0740741
        k(    5) = (  -0.1666667  -0.1666667   0.1666667), wk =   0.1481481
        k(    6) = (  -0.1666667   0.1666667  -0.1666667), wk =   0.1481481
        k(    7) = (   0.1666667  -0.1666667  -0.1666667), wk =   0.1481481
        k(    8) = (  -0.1666667   0.1666667   0.5000000), wk =   0.1481481
        k(    9) = (  -0.5000000  -0.1666667   0.1666667), wk =   0.1481481
        k(   10) = (   0.5000000  -0.1666667  -0.1666667), wk =   0.1481481
        k(   11) = (  -0.1666667  -0.5000000   0.1666667), wk =   0.1481481
        k(   12) = (  -0.1666667   0.5000000  -0.1666667), wk =   0.1481481
        k(   13) = (  -0.5000000   0.1666667   0.5000000), wk =   0.1481481
        k(   14) = (  -0.5000000   0.5000000   0.1666667), wk =   0.1481481

     Dense  grid:    64589 G-vectors     FFT dimensions: (  50,  50,  50)

     Estimated max dynamical RAM per process >      23.36 MB

     Estimated total dynamical RAM >     467.20 MB

     Initial potential from superposition of free atoms

     starting charge   95.92671, renormalised to   96.00000
     Starting wfcs are  128 randomized atomic wfcs
     Checking if some PAW data can be deallocated... 

     total cpu time spent up to now is        2.6 secs

     Self-consistent Calculation

     iteration #  1     ecut=    36.00 Ry     beta= 0.10
     Davidson diagonalization with overlap
     ethr =  1.00E-02,  avg # of iterations =  3.0

     Threshold (ethr) on eigenvalues was too large:
     Diagonalizing with lowered threshold

     Davidson diagonalization with overlap
     ethr =  1.93E-04,  avg # of iterations =  3.6

     total cpu time spent up to now is        8.1 secs

     total energy              =   -1264.10812909 Ry
     Harris-Foulkes estimate   =   -1264.11430327 Ry
     estimated scf accuracy    <       0.18066633 Ry

     iteration #  2     ecut=    36.00 Ry     beta= 0.10
     Davidson diagonalization with overlap
     ethr =  1.88E-04,  avg # of iterations =  1.0

     total cpu time spent up to now is        9.9 secs

     total energy              =   -1264.06114217 Ry
     Harris-Foulkes estimate   =   -1264.10893538 Ry
     estimated scf accuracy    <       0.15688001 Ry

     iteration #  3     ecut=    36.00 Ry     beta= 0.10
     Davidson diagonalization with overlap
     ethr =  1.63E-04,  avg # of iterations =  1.0

     total cpu time spent up to now is       11.7 secs

     total energy              =   -1264.06407475 Ry
     Harris-Foulkes estimate   =   -1264.06418970 Ry
     estimated scf accuracy    <       0.00062019 Ry

     iteration #  4     ecut=    36.00 Ry     beta= 0.10
     Davidson diagonalization with overlap
     ethr =  6.46E-07,  avg # of iterations =  4.9

     total cpu time spent up to now is       23.5 secs

     total energy              =   -1264.06467920 Ry
     Harris-Foulkes estimate   =   -1264.06485338 Ry
     estimated scf accuracy    <       0.00034736 Ry

     iteration #  5     ecut=    36.00 Ry     beta= 0.10
     Davidson diagonalization with overlap
     ethr =  3.62E-07,  avg # of iterations =  1.0

     total cpu time spent up to now is       25.3 secs

     total energy              =   -1264.06448772 Ry
     Harris-Foulkes estimate   =   -1264.06468932 Ry
     estimated scf accuracy    <       0.00022633 Ry

     iteration #  6     ecut=    36.00 Ry     beta= 0.10
     Davidson diagonalization with overlap
     ethr =  2.36E-07,  avg # of iterations =  2.0

     total cpu time spent up to now is       27.8 secs

     total energy              =   -1264.06455155 Ry
     Harris-Foulkes estimate   =   -1264.06455225 Ry
     estimated scf accuracy    <       0.00001409 Ry

     iteration #  7     ecut=    36.00 Ry     beta= 0.10
     Davidson diagonalization with overlap
     ethr =  1.47E-08,  avg # of iterations =  2.4

     total cpu time spent up to now is       29.9 secs

     total energy              =   -1264.06454250 Ry
     Harris-Foulkes estimate   =   -1264.06455248 Ry
     estimated scf accuracy    <       0.00000571 Ry

     iteration #  8     ecut=    36.00 Ry     beta= 0.10
     Davidson diagonalization with overlap
     ethr =  5.94E-09,  avg # of iterations =  2.3

     total cpu time spent up to now is       32.2 secs

     total energy              =   -1264.06454371 Ry
     Harris-Foulkes estimate   =   -1264.06454326 Ry
     estimated scf accuracy    <       0.00000113 Ry

     iteration #  9     ecut=    36.00 Ry     beta= 0.10
     Davidson diagonalization with overlap
     ethr =  1.18E-09,  avg # of iterations =  2.0

     total cpu time spent up to now is       34.2 secs

     End of self-consistent calculation

          k = 0.1667 0.1667 0.1667 ( 12995 PWs)   bands (ev):

    -3.0435  -1.5444  -1.5419  -1.5389  -0.0596  -0.0588  -0.0566  -0.0554
    -0.0541  -0.0505   1.4108   1.4120   1.4142   1.4154   1.4165   1.4172
     1.4193   2.8650   2.8668   2.8682   2.8689   2.8708   2.8733   4.2329
     4.2336   4.2343   4.3299   4.3306   4.3314   5.6414   5.6417   5.6447
     5.6454   5.6468   5.6481   5.7580   7.0589   7.0592   7.0609   7.0626
     7.0636   7.0644   7.0723   7.0748   7.0780   7.4046   7.4054   7.4061
     8.4760   8.4767   8.4783   8.4797   8.4809   8.4815   8.8161   8.8168
     8.8190   8.8204

          k = 0.1667 0.1667-0.5000 ( 12998 PWs)   bands (ev):

    -2.5424  -2.5399  -1.0464  -1.0456  -1.0440  -1.0424   0.4324   0.4342
     0.4358   0.4369   0.4385   0.4391   1.8946   1.8958   1.9005   1.9011
     1.9030   1.9037   3.3435   3.3445   3.3450   3.3453   3.3476   3.3495
     4.7049   4.7054   4.7074   4.7082   4.7716   4.7728   4.7729   4.7741
     4.8021   4.8033   6.1385   6.1392   6.1409   6.1426   6.2227   6.2232
     6.2240   6.2249   7.5388   7.5394   7.5411   7.5428   7.6400   7.6414
     7.8538   7.8544   7.8561   7.8571   8.9774   8.9777   8.9789   8.9797
     9.3378   9.3381

          k = 0.1667-0.5000-0.5000 ( 12972 PWs)   bands (ev):

    -2.0429  -2.0419  -2.0395  -2.0381  -0.5515  -0.5504  -0.5480  -0.5467
     0.9240   0.9250   0.9274   0.9288   2.3764   2.3778   2.3785   2.3795
     2.3803   2.3825   2.3835   2.3841   3.8161   3.8175   3.8182   3.8193
     3.8200   3.8223   3.8232   3.8239   5.1713   5.1723   5.1749   5.1764
     5.2749   5.2762   5.2768   5.2778   5.2789   5.2809   5.2820   5.2826
     6.6673   6.6678   6.6691   6.6698   8.0986   8.0992   8.1004   8.1012
     8.4095   8.4103   8.4124   8.4137   9.3880   9.3886   9.3908   9.3917
     9.3928   9.3946

          k =-0.5000-0.5000-0.5000 ( 12856 PWs)   bands (ev):

    -1.5465  -1.5457  -1.5431  -1.5425  -1.5413  -1.5394  -1.5390  -1.5363
     2.8557   2.8561   2.8573   2.8580   2.8592   2.8602   2.8603   2.8613
     2.8616   2.8622   2.8626   2.8632   2.8635   2.8639   2.8645   2.8646
     2.8655   2.8665   2.8670   2.8673   2.8681   2.8696   2.8711   2.8732
     7.1479   7.1490   7.1497   7.1502   7.1514   7.1520   7.1525   7.1527
     7.1528   7.1536   7.1547   7.1552   7.1559   7.1562   7.1564   7.1571
     7.1575   7.1582   7.1587   7.1589   7.1599   7.1605   7.1623   7.1625
    11.3524  11.3535

          k =-0.1667-0.1667 0.1667 ( 12995 PWs)   bands (ev):

    -3.0435  -1.5439  -1.5420  -1.5394  -0.0594  -0.0580  -0.0567  -0.0553
    -0.0529  -0.0526   1.4103   1.4135   1.4139   1.4149   1.4162   1.4172
     1.4195   2.8659   2.8669   2.8676   2.8689   2.8705   2.8731   4.2332
     4.2336   4.2340   4.3302   4.3306   4.3311   5.6405   5.6435   5.6440
     5.6451   5.6468   5.6483   5.7580   7.0589   7.0604   7.0612   7.0622
     7.0630   7.0640   7.0728   7.0749   7.0774   7.4049   7.4054   7.4058
     8.4764   8.4775   8.4785   8.4793   8.4800   8.4814   8.8157   8.8174
     8.8186   8.8194

          k =-0.1667 0.1667-0.1667 ( 12995 PWs)   bands (ev):

    -3.0435  -1.5444  -1.5418  -1.5391  -0.0598  -0.0584  -0.0562  -0.0551
    -0.0535  -0.0519   1.4113   1.4120   1.4136   1.4147   1.4167   1.4179
     1.4192   2.8662   2.8667   2.8674   2.8688   2.8709   2.8730   4.2328
     4.2336   4.2343   4.3298   4.3306   4.3315   5.6416   5.6422   5.6434
     5.6447   5.6473   5.6490   5.7581   7.0590   7.0599   7.0606   7.0624
     7.0635   7.0645   7.0724   7.0749   7.0776   7.4045   7.4054   7.4062
     8.4763   8.4771   8.4778   8.4799   8.4805   8.4815   8.8154   8.8166
     8.8184   8.8199

          k = 0.1667-0.1667-0.1667 ( 12995 PWs)   bands (ev):

    -3.0435  -1.5440  -1.5424  -1.5388  -0.0598  -0.0580  -0.0566  -0.0560
    -0.0547  -0.0497   1.4115   1.4120   1.4130   1.4151   1.4161   1.4168
     1.4211   2.8652   2.8663   2.8675   2.8694   2.8703   2.8742   4.2327
     4.2336   4.2344   4.3297   4.3306   4.3316   5.6413   5.6424   5.6438
     5.6452   5.6465   5.6490   5.7580   7.0586   7.0600   7.0606   7.0623
     7.0628   7.0647   7.0731   7.0747   7.0781   7.4044   7.4054   7.4063
     8.4757   8.4774   8.4780   8.4799   8.4803   8.4817   8.8158   8.8167
     8.8181   8.8194

          k =-0.1667 0.1667 0.5000 ( 12998 PWs)   bands (ev):

    -2.5424  -2.5399  -1.0470  -1.0450  -1.0445  -1.0421   0.4327   0.4336
     0.4354   0.4370   0.4384   0.4398   1.8943   1.8957   1.9003   1.9015
     1.9027   1.9041   3.3432   3.3444   3.3451   3.3463   3.3473   3.3493
     4.7045   4.7059   4.7071   4.7084   4.7712   4.7724   4.7732   4.7744
     4.8021   4.8034   6.1379   6.1400   6.1404   6.1429   6.2222   6.2234
     6.2240   6.2251   7.5386   7.5397   7.5412   7.5426   7.6400   7.6413
     7.8533   7.8549   7.8559   7.8574   8.9771   8.9781   8.9789   8.9797
     9.3368   9.3388

          k =-0.5000-0.1667 0.1667 ( 12998 PWs)   bands (ev):

    -2.5425  -2.5398  -1.0476  -1.0448  -1.0439  -1.0422   0.4328   0.4346
     0.4355   0.4369   0.4379   0.4393   1.8945   1.8955   1.9006   1.9011
     1.9029   1.9042   3.3431   3.3443   3.3454   3.3465   3.3470   3.3492
     4.7049   4.7052   4.7072   4.7086   4.7710   4.7723   4.7734   4.7747
     4.8019   4.8033   6.1373   6.1401   6.1410   6.1428   6.2225   6.2232
     6.2236   6.2253   7.5381   7.5398   7.5416   7.5426   7.6400   7.6414
     7.8538   7.8543   7.8558   7.8576   8.9769   8.9781   8.9784   8.9803
     9.3371   9.3388

          k = 0.5000-0.1667-0.1667 ( 12998 PWs)   bands (ev):

    -2.5425  -2.5398  -1.0479  -1.0447  -1.0440  -1.0418   0.4315   0.4343
     0.4352   0.4369   0.4378   0.4411   1.8946   1.8954   1.9000   1.9015
     1.9031   1.9040   3.3425   3.3437   3.3454   3.3464   3.3476   3.3498
     4.7045   4.7057   4.7073   4.7084   4.7704   4.7718   4.7740   4.7751
     4.8021   4.8035   6.1369   6.1402   6.1409   6.1432   6.2222   6.2234
     6.2240   6.2251   7.5383   7.5397   7.5407   7.5433   7.6400   7.6414
     7.8532   7.8548   7.8561   7.8574   8.9771   8.9780   8.9790   8.9797
     9.3378   9.3405

          k =-0.1667-0.5000 0.1667 ( 12998 PWs)   bands (ev):

    -2.5414  -2.5409  -1.0468  -1.0462  -1.0435  -1.0419   0.4330   0.4337
     0.4356   0.4360   0.4382   0.4403   1.8947   1.8953   1.9016   1.9018
     1.9024   1.9028   3.3429   3.3431   3.3463   3.3468   3.3478   3.3486
     4.7061   4.7062   4.7067   4.7068   4.7709   4.7711   4.7744   4.7749
     4.8026   4.8029   6.1381   6.1386   6.1414   6.1431   6.2234   6.2235
     6.2238   6.2240   7.5389   7.5401   7.5413   7.5418   7.6405   7.6409
     7.8550   7.8551   7.8556   7.8558   8.9781   8.9782   8.9787   8.9788
     9.3378   9.3387

          k =-0.1667 0.5000-0.1667 ( 12998 PWs)   bands (ev):

    -2.5414  -2.5409  -1.0471  -1.0465  -1.0429  -1.0420   0.4330   0.4339
     0.4360   0.4368   0.4377   0.4394   1.8946   1.8952   1.9017   1.9020
     1.9021   1.9030   3.3425   3.3429   3.3463   3.3468   3.3483   3.3487
     4.7061   4.7062   4.7062   4.7074   4.7705   4.7708   4.7749   4.7752
     4.8025   4.8028   6.1378   6.1384   6.1420   6.1430   6.2231   6.2235
     6.2235   6.2246   7.5392   7.5397   7.5412   7.5420   7.6405   7.6409
     7.8549   7.8551   7.8551   7.8564   8.9778   8.9780   8.9785   8.9794
     9.3385   9.3390

          k =-0.5000 0.1667 0.5000 ( 12972 PWs)   bands (ev):

    -2.0443  -2.0416  -2.0393  -2.0371  -0.5529  -0.5502  -0.5479  -0.5456
     0.9226   0.9252   0.9275   0.9298   2.3760   2.3767   2.3781   2.3805
     2.3815   2.3818   2.3830   2.3851   3.8157   3.8163   3.8179   3.8202
     3.8213   3.8215   3.8228   3.8248   5.1698   5.1725   5.1751   5.1775
     5.2743   5.2752   5.2764   5.2788   5.2798   5.2804   5.2815   5.2836
     6.6666   6.6679   6.6692   6.6703   8.0979   8.0994   8.1005   8.1017
     8.4082   8.4107   8.4125   8.4147   9.3866   9.3873   9.3888   9.3922
     9.3929   9.3946

          k =-0.5000 0.5000 0.1667 ( 12972 PWs)   bands (ev):

    -2.0427  -2.0416  -2.0391  -2.0389  -0.5512  -0.5502  -0.5477  -0.5475
     0.9242   0.9253   0.9278   0.9279   2.3765   2.3779   2.3785   2.3800
     2.3806   2.3823   2.3831   2.3837   3.8162   3.8176   3.8181   3.8197
     3.8203   3.8219   3.8229   3.8235   5.1715   5.1727   5.1753   5.1754
     5.2750   5.2762   5.2770   5.2783   5.2791   5.2808   5.2814   5.2822
     6.6674   6.6680   6.6692   6.6693   8.0987   8.0994   8.1006   8.1008
     8.4096   8.4105   8.4129   8.4130   9.3877   9.3888   9.3897   9.3919
     9.3930   9.3950

     the Fermi energy is     7.8156 ev

!    total energy              =   -1264.06454340 Ry
     Harris-Foulkes estimate   =   -1264.06454379 Ry
     estimated scf accuracy    <       0.00000030 Ry

     total all-electron energy =    -15540.633565 Ry

     The total energy is the sum of the following terms:

     one-electron contribution =     101.25984055 Ry
     hartree contribution      =       0.20238162 Ry
     xc contribution           =     -82.91774177 Ry
     ewald contribution        =    -172.93188273 Ry
     one-center paw contrib.   =   -1109.67980969 Ry
     smearing contrib. (-TS)   =       0.00266861 Ry

     convergence has been achieved in   9 iterations

     Forces acting on atoms (cartesian axes, Ry/au):

     atom    1 type  1   force =    -0.00000654    0.00000284    0.00001861
     atom    2 type  1   force =    -0.00009160    0.00022028    0.00008343
     atom    3 type  1   force =     0.00022314   -0.00003192   -0.00051665
     atom    4 type  1   force =    -0.00005683   -0.00016103   -0.00034925
     atom    5 type  1   force =    -0.00043868   -0.00039650    0.00032213
     atom    6 type  1   force =    -0.00014908    0.00043523    0.00000430
     atom    7 type  1   force =    -0.00015002   -0.00055216    0.00032757
     atom    8 type  1   force =     0.00001749   -0.00007533   -0.00025849
     atom    9 type  1   force =     0.00000759   -0.00007596    0.00011674
     atom   10 type  1   force =    -0.00016668   -0.00009357   -0.00068656
     atom   11 type  1   force =    -0.00024507   -0.00025498   -0.00039612
     atom   12 type  1   force =    -0.00008712    0.00002731   -0.00006987
     atom   13 type  1   force =    -0.00019563   -0.00033033   -0.00002581
     atom   14 type  1   force =    -0.00002951    0.00014764    0.00042489
     atom   15 type  1   force =    -0.00050835    0.00032630    0.00051890
     atom   16 type  1   force =     0.00062525    0.00049010    0.00013829
     atom   17 type  1   force =    -0.00044107    0.00002190    0.00009961
     atom   18 type  1   force =     0.00020744   -0.00004025    0.00042424
     atom   19 type  1   force =     0.00052574    0.00023415   -0.00009113
     atom   20 type  1   force =     0.00007283    0.00021535    0.00006391
     atom   21 type  1   force =     0.00019344   -0.00054431    0.00011644
     atom   22 type  1   force =    -0.00014558    0.00059558    0.00012919
     atom   23 type  1   force =     0.00011889   -0.00010696   -0.00022199
     atom   24 type  1   force =     0.00013300    0.00013961   -0.00008881
     atom   25 type  1   force =     0.00010721   -0.00016374    0.00033643
     atom   26 type  1   force =     0.00031131   -0.00023389   -0.00024565
     atom   27 type  1   force =    -0.00015875    0.00001725    0.00011092
     atom   28 type  1   force =    -0.00008867    0.00023970   -0.00006594
     atom   29 type  1   force =     0.00083578   -0.00033620   -0.00009241
     atom   30 type  1   force =    -0.00025893    0.00003722    0.00025263
     atom   31 type  1   force =    -0.00008646   -0.00004339   -0.00034780
     atom   32 type  1   force =    -0.00007454    0.00029007   -0.00003175

     Total force =     0.002737     Total SCF correction =     0.000498
     SCF correction compared to forces is large: reduce conv_thr to get better values


     Computing stress (Cartesian axis) and pressure

          total   stress  (Ry/bohr**3)                   (kbar)     P=   -1.10
  -0.00000746   0.00000000  -0.00000000         -1.10      0.00     -0.00
   0.00000000  -0.00000745   0.00000000          0.00     -1.10      0.00
  -0.00000000   0.00000000  -0.00000746         -0.00      0.00     -1.10


     Writing output data file fe_scf_fcc_2.save/
 
     init_run     :      1.60s CPU      1.78s WALL (       1 calls)
     electrons    :     23.77s CPU     31.60s WALL (       1 calls)
     forces       :      0.37s CPU      0.39s WALL (       1 calls)
     stress       :      1.68s CPU      1.69s WALL (       1 calls)

     Called by init_run:
     wfcinit      :      1.39s CPU      1.43s WALL (       1 calls)
     potinit      :      0.11s CPU      0.11s WALL (       1 calls)
     hinit0       :      0.07s CPU      0.22s WALL (       1 calls)

     Called by electrons:
     c_bands      :     20.11s CPU     27.83s WALL (      10 calls)
     sum_band     :      2.62s CPU      2.70s WALL (      10 calls)
     v_of_rho     :      0.06s CPU      0.08s WALL (      10 calls)
     newd         :      0.06s CPU      0.06s WALL (      10 calls)
     PAW_pot      :      0.97s CPU      0.98s WALL (      10 calls)
     mix_rho      :      0.02s CPU      0.02s WALL (      10 calls)

     Called by c_bands:
     init_us_2    :      0.48s CPU      0.48s WALL (     322 calls)
     cegterg      :     18.83s CPU     19.79s WALL (     140 calls)

     Called by sum_band:
     sum_band:bec :      0.02s CPU      0.02s WALL (     140 calls)
     addusdens    :      0.04s CPU      0.04s WALL (      10 calls)

     Called by *egterg:
     h_psi        :     13.02s CPU     13.89s WALL (     479 calls)
     s_psi        :      1.07s CPU      1.08s WALL (     479 calls)
     g_psi        :      0.05s CPU      0.05s WALL (     325 calls)
     cdiaghg      :      2.73s CPU      2.78s WALL (     451 calls)

     Called by h_psi:
     h_psi:pot    :     12.95s CPU     13.81s WALL (     479 calls)
     h_psi:calbec :      1.39s CPU      1.46s WALL (     479 calls)
     vloc_psi     :     10.45s CPU     11.23s WALL (     479 calls)
     add_vuspsi   :      1.10s CPU      1.11s WALL (     479 calls)

     General routines
     calbec       :      2.23s CPU      2.33s WALL (     689 calls)
     fft          :      0.14s CPU      0.29s WALL (     137 calls)
     ffts         :      0.01s CPU      0.01s WALL (      10 calls)
     fftw         :     11.64s CPU     12.45s WALL (   53338 calls)
 
     Parallel routines
     fft_scatt_xy :      0.78s CPU      0.80s WALL (   53485 calls)
     fft_scatt_yz :      7.81s CPU      8.63s WALL (   53485 calls)
 
     PWSCF        :    28.33s CPU        36.65s WALL

 
   This run was terminated on:   0:59:54  12Mar2020            

=------------------------------------------------------------------------------=
   JOB DONE.
=------------------------------------------------------------------------------=
