
     Program PWSCF v.6.4.1 starts on  8Apr2020 at 12:47:28 

     This program is part of the open-source Quantum ESPRESSO suite
     for quantum simulation of materials; please cite
         "P. Giannozzi et al., J. Phys.:Condens. Matter 21 395502 (2009);
         "P. Giannozzi et al., J. Phys.:Condens. Matter 29 465901 (2017);
          URL http://www.quantum-espresso.org", 
     in publications or presentations arising from this work. More details at
     http://www.quantum-espresso.org/quote

     Parallel version (MPI), running on     4 processors

     MPI processes distributed on     1 nodes
     R & G space division:  proc/nbgrp/npool/nimage =       4
     Reading input from wd/ecut/file_000181.in
Warning: card &IONS ignored
Warning: card ION_DYNAMICS = 'BFGS', ignored
Warning: card / ignored
Warning: card &CELL ignored
Warning: card CELL_DYNAMICS = 'BFGS', ignored
Warning: card CELL_FACTOR = 2.0, ignored
Warning: card PRESS = 0.0, ignored
Warning: card / ignored

     Current dimensions of program PWSCF are:
     Max number of different atomic species (ntypx) = 10
     Max number of k-points (npk) =  40000
     Max angular momentum in pseudopotentials (lmaxx) =  3
               file Al.pbe-nl-kjpaw_psl.1.0.0.UPF: wavefunction(s)  3S 3P renormalized

     Subspace diagonalization in iterative solution of the eigenvalue problem:
     a serial algorithm will be used


     Parallelization info
     --------------------
     sticks:   dense  smooth     PW     G-vecs:    dense   smooth      PW
     Min        1488    1014    278                86213    48996    7064
     Max        1490    1016    280                86216    48998    7065
     Sum        5957    4061   1117               344859   195989   28257



     bravais-lattice index     =            0
     lattice parameter (alat)  =      15.2712  a.u.
     unit-cell volume          =    3561.3897 (a.u.)^3
     number of atoms/cell      =           32
     number of atomic types    =            1
     number of electrons       =        96.00
     number of Kohn-Sham states=           58
     kinetic-energy cutoff     =      55.0000  Ry
     charge density cutoff     =     320.0000  Ry
     convergence threshold     =      1.0E-06
     mixing beta               =       0.1000
     number of iterations used =           10  TF        mixing
     Exchange-correlation      = SLA PW PBX PBC ( 1  4  3  4 0 0)

     celldm(1)=  15.271200  celldm(2)=   0.000000  celldm(3)=   0.000000
     celldm(4)=   0.000000  celldm(5)=   0.000000  celldm(6)=   0.000000

     crystal axes: (cart. coord. in units of alat)
               a(1) = (   1.000000   0.000000   0.000000 )  
               a(2) = (   0.000000   1.000000   0.000000 )  
               a(3) = (   0.000000   0.000000   1.000000 )  

     reciprocal axes: (cart. coord. in units 2 pi/alat)
               b(1) = (  1.000000  0.000000  0.000000 )  
               b(2) = (  0.000000  1.000000  0.000000 )  
               b(3) = (  0.000000  0.000000  1.000000 )  


     PseudoPot. # 1 for Al read from file:
     /opt/pp/Al.pbe-nl-kjpaw_psl.1.0.0.UPF
     MD5 check sum: 1b67f78b73fe58c7924490f171ce8a1e
     Pseudo is Projector augmented-wave + core cor, Zval =  3.0
     Generated using "atomic" code by A. Dal Corso v.6.3
     Shape of augmentation charge: PSQ
     Using radial grid of 1135 points,  4 beta functions with: 
                l(1) =   0
                l(2) =   0
                l(3) =   1
                l(4) =   1
     Q(r) pseudized with 0 coefficients 


     atomic species   valence    mass     pseudopotential
        Al             3.00    26.98200     Al( 1.00)

     No symmetry found



   Cartesian axes

     site n.     atom                  positions (alat units)
         1           Al  tau(   1) = (  -0.0000327   0.0000095   0.0000680  )
         2           Al  tau(   2) = (   0.2500796   0.2498100   0.0000703  )
         3           Al  tau(   3) = (   0.2499071   0.0000305   0.2502955  )
         4           Al  tau(   4) = (  -0.0000200   0.2502187   0.2501837  )
         5           Al  tau(   5) = (   0.0002558   0.0002521   0.4998810  )
         6           Al  tau(   6) = (   0.2501194   0.2498326   0.5000036  )
         7           Al  tau(   7) = (   0.2500278   0.0001539   0.7498880  )
         8           Al  tau(   8) = (   0.0000549   0.2501136   0.7502101  )
         9           Al  tau(   9) = (   0.0002375   0.5001078  -0.0000154  )
        10           Al  tau(  10) = (   0.2501396   0.7501762   0.0004054  )
        11           Al  tau(  11) = (   0.2501891   0.5001088   0.2502510  )
        12           Al  tau(  12) = (   0.0000383   0.7500455   0.2500253  )
        13           Al  tau(  13) = (   0.0001102   0.5001562   0.5000990  )
        14           Al  tau(  14) = (   0.2499640   0.7500632   0.4998706  )
        15           Al  tau(  15) = (   0.2503366   0.4997894   0.7496960  )
        16           Al  tau(  16) = (  -0.0003280   0.7497055   0.7499931  )
        17           Al  tau(  17) = (   0.5002037  -0.0001004  -0.0000387  )
        18           Al  tau(  18) = (   0.7499123   0.2500941  -0.0002332  )
        19           Al  tau(  19) = (   0.7496354  -0.0000959   0.2500771  )
        20           Al  tau(  20) = (   0.4999751   0.2499614   0.2498317  )
        21           Al  tau(  21) = (   0.4999211   0.0002929   0.4999726  )
        22           Al  tau(  22) = (   0.7500684   0.2496958   0.4999523  )
        23           Al  tau(  23) = (   0.7500357  -0.0000687   0.7500257  )
        24           Al  tau(  24) = (   0.5000114   0.2498864   0.7499948  )
        25           Al  tau(  25) = (   0.4998526   0.5001156  -0.0002192  )
        26           Al  tau(  26) = (   0.7497723   0.7500978   0.0002736  )
        27           Al  tau(  27) = (   0.7501007   0.4998018   0.2499462  )
        28           Al  tau(  28) = (   0.5000878   0.7497908   0.2502093  )
        29           Al  tau(  29) = (   0.4996761   0.5001027   0.5000404  )
        30           Al  tau(  30) = (   0.7501658   0.7499872   0.4998547  )
        31           Al  tau(  31) = (   0.7499472   0.5000095   0.7501393  )
        32           Al  tau(  32) = (   0.5000142   0.7499486   0.7499177  )

     number of k points=    14  Marzari-Vanderbilt smearing, width (Ry)=  0.0200
                       cart. coord. in units 2pi/alat
        k(    1) = (   0.1666667   0.1666667   0.1666667), wk =   0.1481481
        k(    2) = (   0.1666667   0.1666667  -0.5000000), wk =   0.1481481
        k(    3) = (   0.1666667  -0.5000000  -0.5000000), wk =   0.1481481
        k(    4) = (  -0.5000000  -0.5000000  -0.5000000), wk =   0.0740741
        k(    5) = (  -0.1666667  -0.1666667   0.1666667), wk =   0.1481481
        k(    6) = (  -0.1666667   0.1666667  -0.1666667), wk =   0.1481481
        k(    7) = (   0.1666667  -0.1666667  -0.1666667), wk =   0.1481481
        k(    8) = (  -0.1666667   0.1666667   0.5000000), wk =   0.1481481
        k(    9) = (  -0.5000000  -0.1666667   0.1666667), wk =   0.1481481
        k(   10) = (   0.5000000  -0.1666667  -0.1666667), wk =   0.1481481
        k(   11) = (  -0.1666667  -0.5000000   0.1666667), wk =   0.1481481
        k(   12) = (  -0.1666667   0.5000000  -0.1666667), wk =   0.1481481
        k(   13) = (  -0.5000000   0.1666667   0.5000000), wk =   0.1481481
        k(   14) = (  -0.5000000   0.5000000   0.1666667), wk =   0.1481481

     Dense  grid:   344859 G-vectors     FFT dimensions: (  90,  90,  90)

     Smooth grid:   195989 G-vectors     FFT dimensions: (  75,  75,  75)

     Estimated max dynamical RAM per process >     340.89 MB

     Estimated total dynamical RAM >       1.33 GB

     Initial potential from superposition of free atoms

     starting charge   95.92671, renormalised to   96.00000
     Starting wfcs are  128 randomized atomic wfcs
     Checking if some PAW data can be deallocated... 

     total cpu time spent up to now is       31.5 secs

     Self-consistent Calculation

     iteration #  1     ecut=    55.00 Ry     beta= 0.10
     Davidson diagonalization with overlap
     ethr =  1.00E-02,  avg # of iterations =  3.0

     Threshold (ethr) on eigenvalues was too large:
     Diagonalizing with lowered threshold

     Davidson diagonalization with overlap
     ethr =  1.93E-04,  avg # of iterations =  4.0

     total cpu time spent up to now is      122.0 secs

     total energy              =   -1264.10964317 Ry
     Harris-Foulkes estimate   =   -1264.11578986 Ry
     estimated scf accuracy    <       0.18050799 Ry

     iteration #  2     ecut=    55.00 Ry     beta= 0.10
     Davidson diagonalization with overlap
     ethr =  1.88E-04,  avg # of iterations =  1.0

     total cpu time spent up to now is      151.1 secs

     total energy              =   -1264.06280775 Ry
     Harris-Foulkes estimate   =   -1264.11045199 Ry
     estimated scf accuracy    <       0.15681124 Ry

     iteration #  3     ecut=    55.00 Ry     beta= 0.10
     Davidson diagonalization with overlap
     ethr =  1.63E-04,  avg # of iterations =  1.0

     total cpu time spent up to now is      180.1 secs

     total energy              =   -1264.06579031 Ry
     Harris-Foulkes estimate   =   -1264.06587367 Ry
     estimated scf accuracy    <       0.00064060 Ry

     iteration #  4     ecut=    55.00 Ry     beta= 0.10
     Davidson diagonalization with overlap
     c_bands:  1 eigenvalues not converged
     ethr =  6.67E-07,  avg # of iterations =  5.1

     total cpu time spent up to now is      245.3 secs

     total energy              =   -1264.06637967 Ry
     Harris-Foulkes estimate   =   -1264.06656022 Ry
     estimated scf accuracy    <       0.00035335 Ry

     iteration #  5     ecut=    55.00 Ry     beta= 0.10
     Davidson diagonalization with overlap
     ethr =  3.68E-07,  avg # of iterations =  1.4

     total cpu time spent up to now is      274.6 secs

     total energy              =   -1264.06618163 Ry
     Harris-Foulkes estimate   =   -1264.06638986 Ry
     estimated scf accuracy    <       0.00023207 Ry

     iteration #  6     ecut=    55.00 Ry     beta= 0.10
     Davidson diagonalization with overlap
     ethr =  2.42E-07,  avg # of iterations =  2.0

     total cpu time spent up to now is      316.9 secs

     total energy              =   -1264.06624703 Ry
     Harris-Foulkes estimate   =   -1264.06624776 Ry
     estimated scf accuracy    <       0.00001466 Ry

     iteration #  7     ecut=    55.00 Ry     beta= 0.10
     Davidson diagonalization with overlap
     ethr =  1.53E-08,  avg # of iterations =  2.1

     total cpu time spent up to now is      348.4 secs

     total energy              =   -1264.06623964 Ry
     Harris-Foulkes estimate   =   -1264.06624805 Ry
     estimated scf accuracy    <       0.00000583 Ry

     iteration #  8     ecut=    55.00 Ry     beta= 0.10
     Davidson diagonalization with overlap
     ethr =  6.07E-09,  avg # of iterations =  2.6

     total cpu time spent up to now is      385.9 secs

     total energy              =   -1264.06624086 Ry
     Harris-Foulkes estimate   =   -1264.06624045 Ry
     estimated scf accuracy    <       0.00000132 Ry

     iteration #  9     ecut=    55.00 Ry     beta= 0.10
     Davidson diagonalization with overlap
     ethr =  1.38E-09,  avg # of iterations =  1.9

     total cpu time spent up to now is      416.1 secs

     End of self-consistent calculation

          k = 0.1667 0.1667 0.1667 ( 24555 PWs)   bands (ev):

    -3.0437  -1.5446  -1.5421  -1.5391  -0.0598  -0.0589  -0.0567  -0.0556
    -0.0542  -0.0506   1.4106   1.4118   1.4140   1.4153   1.4163   1.4170
     1.4192   2.8648   2.8666   2.8680   2.8687   2.8706   2.8731   4.2327
     4.2334   4.2341   4.3296   4.3304   4.3312   5.6412   5.6415   5.6445
     5.6452   5.6466   5.6479   5.7578   7.0586   7.0589   7.0606   7.0623
     7.0633   7.0641   7.0720   7.0746   7.0777   7.4043   7.4050   7.4058
     8.4757   8.4763   8.4780   8.4794   8.4806   8.4812   8.8155   8.8163
     8.8179   8.8202

          k = 0.1667 0.1667-0.5000 ( 24508 PWs)   bands (ev):

    -2.5426  -2.5401  -1.0465  -1.0458  -1.0442  -1.0426   0.4322   0.4340
     0.4357   0.4367   0.4383   0.4390   1.8944   1.8957   1.9003   1.9009
     1.9028   1.9036   3.3434   3.3443   3.3448   3.3451   3.3474   3.3493
     4.7047   4.7052   4.7072   4.7080   4.7714   4.7726   4.7727   4.7738
     4.8018   4.8030   6.1383   6.1390   6.1406   6.1423   6.2224   6.2229
     6.2237   6.2246   7.5385   7.5391   7.5408   7.5425   7.6397   7.6410
     7.8534   7.8541   7.8558   7.8568   8.9771   8.9773   8.9785   8.9793
     9.3369   9.3388

          k = 0.1667-0.5000-0.5000 ( 24548 PWs)   bands (ev):

    -2.0431  -2.0421  -2.0396  -2.0383  -0.5516  -0.5506  -0.5482  -0.5468
     0.9238   0.9248   0.9272   0.9286   2.3762   2.3776   2.3783   2.3793
     2.3802   2.3823   2.3833   2.3840   3.8159   3.8173   3.8180   3.8191
     3.8198   3.8221   3.8230   3.8237   5.1710   5.1721   5.1747   5.1762
     5.2746   5.2759   5.2766   5.2775   5.2787   5.2806   5.2817   5.2824
     6.6670   6.6675   6.6688   6.6695   8.0983   8.0989   8.1001   8.1009
     8.4091   8.4100   8.4121   8.4134   9.3866   9.3881   9.3893   9.3919
     9.3930   9.3950

          k =-0.5000-0.5000-0.5000 ( 24656 PWs)   bands (ev):

    -1.5467  -1.5459  -1.5433  -1.5427  -1.5415  -1.5396  -1.5392  -1.5365
     2.8555   2.8559   2.8571   2.8578   2.8590   2.8600   2.8601   2.8611
     2.8614   2.8621   2.8624   2.8630   2.8633   2.8637   2.8643   2.8645
     2.8654   2.8663   2.8668   2.8671   2.8679   2.8694   2.8709   2.8730
     7.1476   7.1487   7.1493   7.1499   7.1511   7.1517   7.1522   7.1524
     7.1525   7.1533   7.1544   7.1549   7.1556   7.1559   7.1561   7.1568
     7.1572   7.1579   7.1583   7.1586   7.1596   7.1602   7.1620   7.1622
    11.3506  11.3524

          k =-0.1667-0.1667 0.1667 ( 24555 PWs)   bands (ev):

    -3.0437  -1.5440  -1.5421  -1.5396  -0.0595  -0.0582  -0.0569  -0.0554
    -0.0531  -0.0528   1.4102   1.4133   1.4138   1.4147   1.4160   1.4170
     1.4193   2.8658   2.8667   2.8675   2.8688   2.8703   2.8729   4.2330
     4.2334   4.2338   4.3299   4.3304   4.3309   5.6403   5.6433   5.6438
     5.6448   5.6466   5.6480   5.7578   7.0586   7.0601   7.0609   7.0619
     7.0627   7.0637   7.0725   7.0746   7.0771   7.4046   7.4050   7.4055
     8.4760   8.4772   8.4782   8.4790   8.4796   8.4811   8.8153   8.8165
     8.8187   8.8197

          k =-0.1667 0.1667-0.1667 ( 24555 PWs)   bands (ev):

    -3.0437  -1.5445  -1.5419  -1.5393  -0.0600  -0.0585  -0.0563  -0.0552
    -0.0537  -0.0521   1.4112   1.4118   1.4134   1.4145   1.4165   1.4177
     1.4191   2.8661   2.8665   2.8672   2.8686   2.8707   2.8728   4.2326
     4.2334   4.2341   4.3296   4.3304   4.3312   5.6413   5.6420   5.6432
     5.6445   5.6471   5.6487   5.7578   7.0587   7.0596   7.0603   7.0621
     7.0632   7.0642   7.0721   7.0746   7.0773   7.4042   7.4050   7.4058
     8.4759   8.4767   8.4775   8.4795   8.4802   8.4812   8.8156   8.8167
     8.8171   8.8198

          k = 0.1667-0.1667-0.1667 ( 24555 PWs)   bands (ev):

    -3.0437  -1.5442  -1.5425  -1.5390  -0.0600  -0.0582  -0.0568  -0.0562
    -0.0549  -0.0499   1.4113   1.4118   1.4129   1.4149   1.4159   1.4166
     1.4209   2.8650   2.8662   2.8673   2.8692   2.8701   2.8740   4.2325
     4.2334   4.2342   4.3295   4.3304   4.3313   5.6411   5.6422   5.6436
     5.6449   5.6463   5.6488   5.7578   7.0583   7.0597   7.0603   7.0620
     7.0625   7.0644   7.0728   7.0744   7.0778   7.4041   7.4050   7.4060
     8.4753   8.4771   8.4777   8.4796   8.4800   8.4814   8.8157   8.8175
     8.8182   8.8191

          k =-0.1667 0.1667 0.5000 ( 24508 PWs)   bands (ev):

    -2.5426  -2.5401  -1.0471  -1.0451  -1.0446  -1.0422   0.4325   0.4335
     0.4353   0.4368   0.4382   0.4396   1.8942   1.8955   1.9002   1.9014
     1.9026   1.9039   3.3430   3.3442   3.3449   3.3461   3.3471   3.3491
     4.7043   4.7057   4.7070   4.7082   4.7710   4.7722   4.7730   4.7742
     4.8019   4.8031   6.1376   6.1397   6.1402   6.1427   6.2219   6.2231
     6.2237   6.2248   7.5383   7.5394   7.5409   7.5423   7.6397   7.6410
     7.8529   7.8546   7.8555   7.8571   8.9767   8.9777   8.9785   8.9793
     9.3365   9.3391

          k =-0.5000-0.1667 0.1667 ( 24508 PWs)   bands (ev):

    -2.5427  -2.5400  -1.0477  -1.0450  -1.0441  -1.0424   0.4326   0.4345
     0.4353   0.4367   0.4377   0.4391   1.8943   1.8954   1.9004   1.9009
     1.9027   1.9040   3.3429   3.3441   3.3452   3.3463   3.3468   3.3490
     4.7048   4.7050   4.7070   4.7084   4.7708   4.7721   4.7732   4.7744
     4.8017   4.8031   6.1370   6.1399   6.1408   6.1426   6.2223   6.2230
     6.2233   6.2250   7.5378   7.5395   7.5412   7.5422   7.6396   7.6411
     7.8534   7.8539   7.8555   7.8573   8.9766   8.9777   8.9780   8.9799
     9.3370   9.3383

          k = 0.5000-0.1667-0.1667 ( 24508 PWs)   bands (ev):

    -2.5427  -2.5400  -1.0481  -1.0449  -1.0442  -1.0420   0.4313   0.4341
     0.4351   0.4367   0.4377   0.4410   1.8944   1.8952   1.8999   1.9013
     1.9030   1.9038   3.3423   3.3435   3.3452   3.3463   3.3474   3.3496
     4.7043   4.7055   4.7071   4.7082   4.7702   4.7716   4.7738   4.7749
     4.8018   4.8033   6.1367   6.1399   6.1407   6.1429   6.2219   6.2231
     6.2237   6.2248   7.5380   7.5393   7.5404   7.5430   7.6396   7.6411
     7.8529   7.8544   7.8557   7.8571   8.9767   8.9776   8.9786   8.9794
     9.3378   9.3390

          k =-0.1667-0.5000 0.1667 ( 24508 PWs)   bands (ev):

    -2.5416  -2.5411  -1.0470  -1.0464  -1.0437  -1.0421   0.4328   0.4335
     0.4355   0.4358   0.4381   0.4402   1.8946   1.8952   1.9015   1.9016
     1.9022   1.9026   3.3427   3.3430   3.3461   3.3466   3.3476   3.3484
     4.7060   4.7060   4.7065   4.7066   4.7707   4.7709   4.7742   4.7747
     4.8023   4.8027   6.1378   6.1384   6.1412   6.1428   6.2231   6.2232
     6.2236   6.2237   7.5386   7.5398   7.5409   7.5415   7.6402   7.6406
     7.8546   7.8548   7.8553   7.8554   8.9778   8.9778   8.9783   8.9784
     9.3365   9.3381

          k =-0.1667 0.5000-0.1667 ( 24508 PWs)   bands (ev):

    -2.5416  -2.5411  -1.0473  -1.0467  -1.0431  -1.0421   0.4328   0.4337
     0.4359   0.4367   0.4376   0.4392   1.8945   1.8950   1.9015   1.9018
     1.9020   1.9028   3.3423   3.3427   3.3461   3.3466   3.3481   3.3485
     4.7059   4.7060   4.7061   4.7072   4.7703   4.7706   4.7747   4.7750
     4.8022   4.8026   6.1375   6.1381   6.1418   6.1428   6.2228   6.2232
     6.2233   6.2244   7.5388   7.5394   7.5409   7.5417   7.6402   7.6406
     7.8545   7.8547   7.8548   7.8561   8.9775   8.9776   8.9781   8.9791
     9.3369   9.3380

          k =-0.5000 0.1667 0.5000 ( 24548 PWs)   bands (ev):

    -2.0445  -2.0418  -2.0395  -2.0372  -0.5531  -0.5504  -0.5481  -0.5458
     0.9224   0.9251   0.9274   0.9297   2.3758   2.3765   2.3780   2.3803
     2.3813   2.3817   2.3829   2.3849   3.8155   3.8161   3.8177   3.8200
     3.8211   3.8213   3.8226   3.8246   5.1696   5.1724   5.1749   5.1772
     5.2740   5.2749   5.2762   5.2786   5.2795   5.2802   5.2812   5.2833
     6.6663   6.6676   6.6689   6.6700   8.0976   8.0991   8.1001   8.1013
     8.4078   8.4103   8.4121   8.4143   9.3862   9.3869   9.3888   9.3916
     9.3926   9.3928

          k =-0.5000 0.5000 0.1667 ( 24548 PWs)   bands (ev):

    -2.0429  -2.0418  -2.0393  -2.0391  -0.5514  -0.5503  -0.5478  -0.5477
     0.9240   0.9251   0.9276   0.9278   2.3764   2.3777   2.3783   2.3798
     2.3805   2.3821   2.3829   2.3836   3.8160   3.8175   3.8179   3.8195
     3.8201   3.8217   3.8227   3.8233   5.1713   5.1725   5.1751   5.1752
     5.2748   5.2760   5.2767   5.2780   5.2789   5.2805   5.2812   5.2819
     6.6671   6.6678   6.6689   6.6691   8.0984   8.0990   8.1003   8.1004
     8.4092   8.4102   8.4125   8.4126   9.3863   9.3882   9.3894   9.3915
     9.3933   9.3943

     the Fermi energy is     7.8153 ev

!    total energy              =   -1264.06624058 Ry
     Harris-Foulkes estimate   =   -1264.06624094 Ry
     estimated scf accuracy    <       0.00000030 Ry

     total all-electron energy =    -15540.635217 Ry

     The total energy is the sum of the following terms:

     one-electron contribution =     101.25835104 Ry
     hartree contribution      =       0.20234379 Ry
     xc contribution           =     -82.91799056 Ry
     ewald contribution        =    -172.93188273 Ry
     one-center paw contrib.   =   -1109.67972835 Ry
     smearing contrib. (-TS)   =       0.00266622 Ry

     convergence has been achieved in   9 iterations

     Forces acting on atoms (cartesian axes, Ry/au):

     atom    1 type  1   force =    -0.00000706    0.00000339    0.00001829
     atom    2 type  1   force =    -0.00009126    0.00022171    0.00008266
     atom    3 type  1   force =     0.00022478   -0.00003273   -0.00051768
     atom    4 type  1   force =    -0.00005801   -0.00016048   -0.00035093
     atom    5 type  1   force =    -0.00044144   -0.00039815    0.00032389
     atom    6 type  1   force =    -0.00014969    0.00043704    0.00000492
     atom    7 type  1   force =    -0.00014958   -0.00055508    0.00032774
     atom    8 type  1   force =     0.00001702   -0.00007488   -0.00025910
     atom    9 type  1   force =     0.00000985   -0.00007669    0.00011515
     atom   10 type  1   force =    -0.00016563   -0.00009374   -0.00069161
     atom   11 type  1   force =    -0.00024577   -0.00025513   -0.00039687
     atom   12 type  1   force =    -0.00008704    0.00002637   -0.00006887
     atom   13 type  1   force =    -0.00019770   -0.00032951   -0.00002433
     atom   14 type  1   force =    -0.00002991    0.00014591    0.00042652
     atom   15 type  1   force =    -0.00051040    0.00032798    0.00052067
     atom   16 type  1   force =     0.00062839    0.00048814    0.00013970
     atom   17 type  1   force =    -0.00044436    0.00002167    0.00010037
     atom   18 type  1   force =     0.00020789   -0.00003962    0.00042365
     atom   19 type  1   force =     0.00052602    0.00023580   -0.00009058
     atom   20 type  1   force =     0.00007247    0.00021524    0.00006360
     atom   21 type  1   force =     0.00019436   -0.00054618    0.00011682
     atom   22 type  1   force =    -0.00014660    0.00059637    0.00012978
     atom   23 type  1   force =     0.00011823   -0.00010669   -0.00022438
     atom   24 type  1   force =     0.00013375    0.00013865   -0.00008847
     atom   25 type  1   force =     0.00010742   -0.00016380    0.00033824
     atom   26 type  1   force =     0.00031282   -0.00023417   -0.00024659
     atom   27 type  1   force =    -0.00015873    0.00001741    0.00011210
     atom   28 type  1   force =    -0.00008989    0.00024013   -0.00006468
     atom   29 type  1   force =     0.00083850   -0.00033496   -0.00009226
     atom   30 type  1   force =    -0.00025861    0.00003614    0.00025426
     atom   31 type  1   force =    -0.00008537   -0.00004178   -0.00034826
     atom   32 type  1   force =    -0.00007448    0.00029162   -0.00003375

     Total force =     0.002746     Total SCF correction =     0.000513
     SCF correction compared to forces is large: reduce conv_thr to get better values


     Computing stress (Cartesian axis) and pressure

          total   stress  (Ry/bohr**3)                   (kbar)     P=   -0.97
  -0.00000658  -0.00000000   0.00000000         -0.97     -0.00      0.00
  -0.00000000  -0.00000658   0.00000001         -0.00     -0.97      0.00
   0.00000000   0.00000001  -0.00000659          0.00      0.00     -0.97


     Writing output data file fe_scf_fcc_2.save/

     init_run     :     30.80s CPU     31.20s WALL (       1 calls)
     electrons    :    380.05s CPU    384.60s WALL (       1 calls)
     forces       :     13.46s CPU     13.52s WALL (       1 calls)
     stress       :     16.97s CPU     17.05s WALL (       1 calls)

     Called by init_run:
     wfcinit      :     29.88s CPU     30.23s WALL (       1 calls)
     potinit      :      0.38s CPU      0.40s WALL (       1 calls)
     hinit0       :      0.20s CPU      0.21s WALL (       1 calls)

     Called by electrons:
     c_bands      :    334.81s CPU    338.33s WALL (      10 calls)
     sum_band     :     39.45s CPU     40.18s WALL (      10 calls)
     v_of_rho     :      1.08s CPU      1.14s WALL (      10 calls)
     newd         :      2.63s CPU      2.91s WALL (      10 calls)
     PAW_pot      :      2.39s CPU      2.39s WALL (      10 calls)
     mix_rho      :      0.19s CPU      0.19s WALL (      10 calls)

     Called by c_bands:
     init_us_2    :      2.55s CPU      2.59s WALL (     322 calls)
     cegterg      :    330.57s CPU    333.96s WALL (     140 calls)

     Called by sum_band:
     sum_band:bec :      0.03s CPU      0.03s WALL (     140 calls)
     addusdens    :      2.53s CPU      2.85s WALL (      10 calls)

     Called by *egterg:
     h_psi        :    198.80s CPU    201.50s WALL (     493 calls)
     s_psi        :     77.56s CPU     77.81s WALL (     493 calls)
     g_psi        :      0.28s CPU      0.28s WALL (     339 calls)
     cdiaghg      :      3.86s CPU      3.86s WALL (     465 calls)

     Called by h_psi:
     h_psi:pot    :    198.23s CPU    200.50s WALL (     493 calls)
     h_psi:calbec :     78.87s CPU     78.96s WALL (     493 calls)
     vloc_psi     :     40.45s CPU     42.62s WALL (     493 calls)
     add_vuspsi   :     78.91s CPU     78.92s WALL (     493 calls)

     General routines
     calbec       :    120.91s CPU    121.04s WALL (     703 calls)
     fft          :      0.62s CPU      0.67s WALL (     154 calls)
     ffts         :      0.03s CPU      0.04s WALL (      20 calls)
     fftw         :     44.11s CPU     46.44s WALL (   53474 calls)
     interpolate  :      0.07s CPU      0.07s WALL (      10 calls)

     Parallel routines
     fft_scatt_xy :      5.19s CPU      5.48s WALL (   53648 calls)
     fft_scatt_yz :     10.26s CPU     10.94s WALL (   53648 calls)

     PWSCF        :   7m21.74s CPU   7m27.05s WALL


   This run was terminated on:  12:54:55   8Apr2020            

=------------------------------------------------------------------------------=
   JOB DONE.
=------------------------------------------------------------------------------=
