
     Program PWSCF v.6.4.1 starts on  8Apr2020 at 10:52:34 

     This program is part of the open-source Quantum ESPRESSO suite
     for quantum simulation of materials; please cite
         "P. Giannozzi et al., J. Phys.:Condens. Matter 21 395502 (2009);
         "P. Giannozzi et al., J. Phys.:Condens. Matter 29 465901 (2017);
          URL http://www.quantum-espresso.org", 
     in publications or presentations arising from this work. More details at
     http://www.quantum-espresso.org/quote

     Parallel version (MPI), running on     4 processors

     MPI processes distributed on     1 nodes
     R & G space division:  proc/nbgrp/npool/nimage =       4
     Reading input from wd/ecut/file_000144.in
Warning: card &IONS ignored
Warning: card ION_DYNAMICS = 'BFGS', ignored
Warning: card / ignored
Warning: card &CELL ignored
Warning: card CELL_DYNAMICS = 'BFGS', ignored
Warning: card CELL_FACTOR = 2.0, ignored
Warning: card PRESS = 0.0, ignored
Warning: card / ignored

     Current dimensions of program PWSCF are:
     Max number of different atomic species (ntypx) = 10
     Max number of k-points (npk) =  40000
     Max angular momentum in pseudopotentials (lmaxx) =  3
               file Al.pbe-nl-kjpaw_psl.1.0.0.UPF: wavefunction(s)  3S 3P renormalized

     Subspace diagonalization in iterative solution of the eigenvalue problem:
     a serial algorithm will be used


     Parallelization info
     --------------------
     sticks:   dense  smooth     PW     G-vecs:    dense   smooth      PW
     Min        1206     648    183                62990    24966    3698
     Max        1207     649    184                62995    24971    3699
     Sum        4825    2593    733               251967    99873   14795



     bravais-lattice index     =            0
     lattice parameter (alat)  =      15.2712  a.u.
     unit-cell volume          =    3561.3897 (a.u.)^3
     number of atoms/cell      =           32
     number of atomic types    =            1
     number of electrons       =        96.00
     number of Kohn-Sham states=           58
     kinetic-energy cutoff     =      35.0000  Ry
     charge density cutoff     =     260.0000  Ry
     convergence threshold     =      1.0E-06
     mixing beta               =       0.1000
     number of iterations used =           10  TF        mixing
     Exchange-correlation      = SLA PW PBX PBC ( 1  4  3  4 0 0)

     celldm(1)=  15.271200  celldm(2)=   0.000000  celldm(3)=   0.000000
     celldm(4)=   0.000000  celldm(5)=   0.000000  celldm(6)=   0.000000

     crystal axes: (cart. coord. in units of alat)
               a(1) = (   1.000000   0.000000   0.000000 )  
               a(2) = (   0.000000   1.000000   0.000000 )  
               a(3) = (   0.000000   0.000000   1.000000 )  

     reciprocal axes: (cart. coord. in units 2 pi/alat)
               b(1) = (  1.000000  0.000000  0.000000 )  
               b(2) = (  0.000000  1.000000  0.000000 )  
               b(3) = (  0.000000  0.000000  1.000000 )  


     PseudoPot. # 1 for Al read from file:
     /opt/pp/Al.pbe-nl-kjpaw_psl.1.0.0.UPF
     MD5 check sum: 1b67f78b73fe58c7924490f171ce8a1e
     Pseudo is Projector augmented-wave + core cor, Zval =  3.0
     Generated using "atomic" code by A. Dal Corso v.6.3
     Shape of augmentation charge: PSQ
     Using radial grid of 1135 points,  4 beta functions with: 
                l(1) =   0
                l(2) =   0
                l(3) =   1
                l(4) =   1
     Q(r) pseudized with 0 coefficients 


     atomic species   valence    mass     pseudopotential
        Al             3.00    26.98200     Al( 1.00)

     No symmetry found



   Cartesian axes

     site n.     atom                  positions (alat units)
         1           Al  tau(   1) = (  -0.0000327   0.0000095   0.0000680  )
         2           Al  tau(   2) = (   0.2500796   0.2498100   0.0000703  )
         3           Al  tau(   3) = (   0.2499071   0.0000305   0.2502955  )
         4           Al  tau(   4) = (  -0.0000200   0.2502187   0.2501837  )
         5           Al  tau(   5) = (   0.0002558   0.0002521   0.4998810  )
         6           Al  tau(   6) = (   0.2501194   0.2498326   0.5000036  )
         7           Al  tau(   7) = (   0.2500278   0.0001539   0.7498880  )
         8           Al  tau(   8) = (   0.0000549   0.2501136   0.7502101  )
         9           Al  tau(   9) = (   0.0002375   0.5001078  -0.0000154  )
        10           Al  tau(  10) = (   0.2501396   0.7501762   0.0004054  )
        11           Al  tau(  11) = (   0.2501891   0.5001088   0.2502510  )
        12           Al  tau(  12) = (   0.0000383   0.7500455   0.2500253  )
        13           Al  tau(  13) = (   0.0001102   0.5001562   0.5000990  )
        14           Al  tau(  14) = (   0.2499640   0.7500632   0.4998706  )
        15           Al  tau(  15) = (   0.2503366   0.4997894   0.7496960  )
        16           Al  tau(  16) = (  -0.0003280   0.7497055   0.7499931  )
        17           Al  tau(  17) = (   0.5002037  -0.0001004  -0.0000387  )
        18           Al  tau(  18) = (   0.7499123   0.2500941  -0.0002332  )
        19           Al  tau(  19) = (   0.7496354  -0.0000959   0.2500771  )
        20           Al  tau(  20) = (   0.4999751   0.2499614   0.2498317  )
        21           Al  tau(  21) = (   0.4999211   0.0002929   0.4999726  )
        22           Al  tau(  22) = (   0.7500684   0.2496958   0.4999523  )
        23           Al  tau(  23) = (   0.7500357  -0.0000687   0.7500257  )
        24           Al  tau(  24) = (   0.5000114   0.2498864   0.7499948  )
        25           Al  tau(  25) = (   0.4998526   0.5001156  -0.0002192  )
        26           Al  tau(  26) = (   0.7497723   0.7500978   0.0002736  )
        27           Al  tau(  27) = (   0.7501007   0.4998018   0.2499462  )
        28           Al  tau(  28) = (   0.5000878   0.7497908   0.2502093  )
        29           Al  tau(  29) = (   0.4996761   0.5001027   0.5000404  )
        30           Al  tau(  30) = (   0.7501658   0.7499872   0.4998547  )
        31           Al  tau(  31) = (   0.7499472   0.5000095   0.7501393  )
        32           Al  tau(  32) = (   0.5000142   0.7499486   0.7499177  )

     number of k points=    14  Marzari-Vanderbilt smearing, width (Ry)=  0.0200
                       cart. coord. in units 2pi/alat
        k(    1) = (   0.1666667   0.1666667   0.1666667), wk =   0.1481481
        k(    2) = (   0.1666667   0.1666667  -0.5000000), wk =   0.1481481
        k(    3) = (   0.1666667  -0.5000000  -0.5000000), wk =   0.1481481
        k(    4) = (  -0.5000000  -0.5000000  -0.5000000), wk =   0.0740741
        k(    5) = (  -0.1666667  -0.1666667   0.1666667), wk =   0.1481481
        k(    6) = (  -0.1666667   0.1666667  -0.1666667), wk =   0.1481481
        k(    7) = (   0.1666667  -0.1666667  -0.1666667), wk =   0.1481481
        k(    8) = (  -0.1666667   0.1666667   0.5000000), wk =   0.1481481
        k(    9) = (  -0.5000000  -0.1666667   0.1666667), wk =   0.1481481
        k(   10) = (   0.5000000  -0.1666667  -0.1666667), wk =   0.1481481
        k(   11) = (  -0.1666667  -0.5000000   0.1666667), wk =   0.1481481
        k(   12) = (  -0.1666667   0.5000000  -0.1666667), wk =   0.1481481
        k(   13) = (  -0.5000000   0.1666667   0.5000000), wk =   0.1481481
        k(   14) = (  -0.5000000   0.5000000   0.1666667), wk =   0.1481481

     Dense  grid:   251967 G-vectors     FFT dimensions: (  80,  80,  80)

     Smooth grid:    99873 G-vectors     FFT dimensions: (  60,  60,  60)

     Estimated max dynamical RAM per process >     225.11 MB

     Estimated total dynamical RAM >     900.43 MB

     Initial potential from superposition of free atoms

     starting charge   95.92671, renormalised to   96.00000
     Starting wfcs are  128 randomized atomic wfcs
     Checking if some PAW data can be deallocated... 

     total cpu time spent up to now is       14.0 secs

     Self-consistent Calculation

     iteration #  1     ecut=    35.00 Ry     beta= 0.10
     Davidson diagonalization with overlap
     ethr =  1.00E-02,  avg # of iterations =  3.0

     Threshold (ethr) on eigenvalues was too large:
     Diagonalizing with lowered threshold

     Davidson diagonalization with overlap
     ethr =  1.93E-04,  avg # of iterations =  3.6

     total cpu time spent up to now is       55.4 secs

     total energy              =   -1264.10805359 Ry
     Harris-Foulkes estimate   =   -1264.11422881 Ry
     estimated scf accuracy    <       0.18072220 Ry

     iteration #  2     ecut=    35.00 Ry     beta= 0.10
     Davidson diagonalization with overlap
     ethr =  1.88E-04,  avg # of iterations =  1.0

     total cpu time spent up to now is       69.1 secs

     total energy              =   -1264.06107670 Ry
     Harris-Foulkes estimate   =   -1264.10884601 Ry
     estimated scf accuracy    <       0.15687758 Ry

     iteration #  3     ecut=    35.00 Ry     beta= 0.10
     Davidson diagonalization with overlap
     ethr =  1.63E-04,  avg # of iterations =  1.0

     total cpu time spent up to now is       82.9 secs

     total energy              =   -1264.06398197 Ry
     Harris-Foulkes estimate   =   -1264.06411488 Ry
     estimated scf accuracy    <       0.00060853 Ry

     iteration #  4     ecut=    35.00 Ry     beta= 0.10
     Davidson diagonalization with overlap
     ethr =  6.34E-07,  avg # of iterations =  4.9

     total cpu time spent up to now is      112.5 secs

     total energy              =   -1264.06460195 Ry
     Harris-Foulkes estimate   =   -1264.06476772 Ry
     estimated scf accuracy    <       0.00034775 Ry

     iteration #  5     ecut=    35.00 Ry     beta= 0.10
     Davidson diagonalization with overlap
     ethr =  3.62E-07,  avg # of iterations =  2.0

     total cpu time spent up to now is      126.6 secs

     total energy              =   -1264.06440740 Ry
     Harris-Foulkes estimate   =   -1264.06461199 Ry
     estimated scf accuracy    <       0.00022666 Ry

     iteration #  6     ecut=    35.00 Ry     beta= 0.10
     Davidson diagonalization with overlap
     ethr =  2.36E-07,  avg # of iterations =  2.0

     total cpu time spent up to now is      146.3 secs

     total energy              =   -1264.06447178 Ry
     Harris-Foulkes estimate   =   -1264.06447173 Ry
     estimated scf accuracy    <       0.00001379 Ry

     iteration #  7     ecut=    35.00 Ry     beta= 0.10
     Davidson diagonalization with overlap
     ethr =  1.44E-08,  avg # of iterations =  2.4

     total cpu time spent up to now is      161.3 secs

     total energy              =   -1264.06446312 Ry
     Harris-Foulkes estimate   =   -1264.06447270 Ry
     estimated scf accuracy    <       0.00000566 Ry

     iteration #  8     ecut=    35.00 Ry     beta= 0.10
     Davidson diagonalization with overlap
     ethr =  5.90E-09,  avg # of iterations =  2.5

     total cpu time spent up to now is      178.8 secs

     total energy              =   -1264.06446432 Ry
     Harris-Foulkes estimate   =   -1264.06446389 Ry
     estimated scf accuracy    <       0.00000107 Ry

     iteration #  9     ecut=    35.00 Ry     beta= 0.10
     Davidson diagonalization with overlap
     ethr =  1.11E-09,  avg # of iterations =  2.0

     total cpu time spent up to now is      193.3 secs

     End of self-consistent calculation

          k = 0.1667 0.1667 0.1667 ( 12485 PWs)   bands (ev):

    -3.0434  -1.5443  -1.5418  -1.5388  -0.0595  -0.0587  -0.0565  -0.0553
    -0.0540  -0.0504   1.4109   1.4121   1.4143   1.4155   1.4166   1.4173
     1.4194   2.8651   2.8669   2.8682   2.8690   2.8708   2.8734   4.2329
     4.2336   4.2344   4.3300   4.3307   4.3315   5.6415   5.6418   5.6448
     5.6455   5.6469   5.6482   5.7581   7.0589   7.0593   7.0610   7.0627
     7.0636   7.0645   7.0724   7.0749   7.0781   7.4047   7.4055   7.4063
     8.4762   8.4768   8.4784   8.4798   8.4811   8.4816   8.8157   8.8169
     8.8187   8.8192

          k = 0.1667 0.1667-0.5000 ( 12424 PWs)   bands (ev):

    -2.5423  -2.5398  -1.0463  -1.0455  -1.0439  -1.0423   0.4325   0.4343
     0.4359   0.4370   0.4386   0.4392   1.8947   1.8959   1.9005   1.9012
     1.9031   1.9038   3.3436   3.3446   3.3451   3.3453   3.3476   3.3496
     4.7050   4.7055   4.7075   4.7083   4.7717   4.7729   4.7730   4.7741
     4.8022   4.8034   6.1386   6.1393   6.1409   6.1427   6.2228   6.2233
     6.2241   6.2250   7.5389   7.5395   7.5412   7.5429   7.6402   7.6415
     7.8539   7.8546   7.8563   7.8573   8.9776   8.9779   8.9791   8.9798
     9.3368   9.3395

          k = 0.1667-0.5000-0.5000 ( 12456 PWs)   bands (ev):

    -2.0428  -2.0418  -2.0394  -2.0380  -0.5514  -0.5503  -0.5479  -0.5466
     0.9240   0.9251   0.9275   0.9289   2.3765   2.3779   2.3786   2.3795
     2.3804   2.3826   2.3835   2.3842   3.8161   3.8176   3.8183   3.8193
     3.8201   3.8223   3.8233   3.8240   5.1713   5.1724   5.1750   5.1765
     5.2749   5.2763   5.2769   5.2779   5.2790   5.2810   5.2821   5.2827
     6.6674   6.6679   6.6692   6.6699   8.0988   8.0993   8.1005   8.1013
     8.4096   8.4105   8.4126   8.4138   9.3869   9.3887   9.3900   9.3914
     9.3938   9.3951

          k =-0.5000-0.5000-0.5000 ( 12568 PWs)   bands (ev):

    -1.5464  -1.5456  -1.5430  -1.5424  -1.5412  -1.5393  -1.5389  -1.5362
     2.8557   2.8561   2.8574   2.8580   2.8593   2.8602   2.8604   2.8614
     2.8617   2.8623   2.8626   2.8632   2.8636   2.8639   2.8646   2.8647
     2.8656   2.8665   2.8671   2.8673   2.8681   2.8697   2.8711   2.8732
     7.1480   7.1490   7.1497   7.1503   7.1515   7.1521   7.1525   7.1528
     7.1529   7.1536   7.1548   7.1553   7.1560   7.1562   7.1565   7.1572
     7.1576   7.1583   7.1587   7.1589   7.1600   7.1606   7.1623   7.1625
    11.3520  11.3534

          k =-0.1667-0.1667 0.1667 ( 12485 PWs)   bands (ev):

    -3.0434  -1.5437  -1.5419  -1.5393  -0.0593  -0.0579  -0.0566  -0.0552
    -0.0528  -0.0525   1.4104   1.4136   1.4140   1.4150   1.4163   1.4172
     1.4196   2.8660   2.8670   2.8677   2.8690   2.8706   2.8731   4.2332
     4.2337   4.2341   4.3303   4.3307   4.3312   5.6406   5.6436   5.6441
     5.6451   5.6469   5.6484   5.7581   7.0590   7.0605   7.0613   7.0622
     7.0631   7.0640   7.0729   7.0750   7.0775   7.4050   7.4055   7.4060
     8.4765   8.4777   8.4787   8.4794   8.4801   8.4815   8.8158   8.8175
     8.8187   8.8202

          k =-0.1667 0.1667-0.1667 ( 12485 PWs)   bands (ev):

    -3.0434  -1.5443  -1.5417  -1.5390  -0.0597  -0.0583  -0.0561  -0.0550
    -0.0535  -0.0519   1.4114   1.4121   1.4137   1.4148   1.4168   1.4180
     1.4193   2.8663   2.8667   2.8675   2.8689   2.8710   2.8730   4.2329
     4.2337   4.2344   4.3299   4.3307   4.3316   5.6417   5.6423   5.6435
     5.6448   5.6474   5.6490   5.7581   7.0591   7.0600   7.0607   7.0625
     7.0636   7.0645   7.0725   7.0750   7.0777   7.4047   7.4055   7.4063
     8.4764   8.4772   8.4780   8.4800   8.4807   8.4817   8.8161   8.8165
     8.8184   8.8201

          k = 0.1667-0.1667-0.1667 ( 12485 PWs)   bands (ev):

    -3.0434  -1.5439  -1.5423  -1.5387  -0.0597  -0.0579  -0.0565  -0.0559
    -0.0546  -0.0496   1.4115   1.4121   1.4131   1.4151   1.4162   1.4169
     1.4211   2.8653   2.8664   2.8676   2.8694   2.8704   2.8743   4.2328
     4.2337   4.2345   4.3298   4.3307   4.3317   5.6414   5.6425   5.6439
     5.6452   5.6466   5.6491   5.7581   7.0586   7.0601   7.0606   7.0624
     7.0629   7.0647   7.0732   7.0747   7.0781   7.4046   7.4055   7.4064
     8.4758   8.4776   8.4782   8.4800   8.4805   8.4818   8.8160   8.8172
     8.8187   8.8196

          k =-0.1667 0.1667 0.5000 ( 12424 PWs)   bands (ev):

    -2.5423  -2.5398  -1.0469  -1.0449  -1.0444  -1.0420   0.4328   0.4337
     0.4355   0.4371   0.4385   0.4399   1.8944   1.8957   1.9004   1.9016
     1.9028   1.9042   3.3433   3.3444   3.3451   3.3463   3.3473   3.3493
     4.7046   4.7059   4.7072   4.7085   4.7713   4.7725   4.7733   4.7745
     4.8022   4.8035   6.1379   6.1400   6.1405   6.1430   6.2223   6.2235
     6.2241   6.2252   7.5387   7.5398   7.5413   7.5427   7.6402   7.6415
     7.8534   7.8551   7.8560   7.8576   8.9773   8.9782   8.9791   8.9799
     9.3378   9.3395

          k =-0.5000-0.1667 0.1667 ( 12424 PWs)   bands (ev):

    -2.5424  -2.5397  -1.0475  -1.0447  -1.0438  -1.0421   0.4328   0.4347
     0.4356   0.4370   0.4380   0.4393   1.8946   1.8956   1.9007   1.9011
     1.9029   1.9042   3.3431   3.3443   3.3454   3.3466   3.3471   3.3493
     4.7050   4.7053   4.7073   4.7087   4.7711   4.7724   4.7735   4.7747
     4.8020   4.8034   6.1373   6.1402   6.1411   6.1429   6.2226   6.2233
     6.2237   6.2254   7.5382   7.5399   7.5417   7.5427   7.6401   7.6415
     7.8539   7.8544   7.8560   7.8578   8.9771   8.9783   8.9786   8.9805
     9.3369   9.3400

          k = 0.5000-0.1667-0.1667 ( 12424 PWs)   bands (ev):

    -2.5424  -2.5397  -1.0478  -1.0446  -1.0439  -1.0417   0.4316   0.4344
     0.4353   0.4370   0.4379   0.4412   1.8947   1.8955   1.9001   1.9016
     1.9032   1.9041   3.3425   3.3438   3.3455   3.3465   3.3476   3.3499
     4.7046   4.7057   4.7074   4.7085   4.7705   4.7719   4.7740   4.7751
     4.8022   4.8036   6.1370   6.1403   6.1410   6.1432   6.2223   6.2235
     6.2241   6.2252   7.5384   7.5397   7.5409   7.5434   7.6401   7.6415
     7.8534   7.8549   7.8562   7.8576   8.9772   8.9781   8.9792   8.9799
     9.3374   9.3383

          k =-0.1667-0.5000 0.1667 ( 12424 PWs)   bands (ev):

    -2.5413  -2.5408  -1.0467  -1.0462  -1.0434  -1.0418   0.4331   0.4338
     0.4357   0.4361   0.4383   0.4404   1.8948   1.8954   1.9017   1.9019
     1.9024   1.9029   3.3429   3.3432   3.3464   3.3468   3.3479   3.3486
     4.7062   4.7063   4.7068   4.7069   4.7710   4.7711   4.7745   4.7750
     4.8026   4.8030   6.1381   6.1387   6.1415   6.1432   6.2235   6.2236
     6.2239   6.2241   7.5390   7.5402   7.5414   7.5419   7.6406   7.6410
     7.8551   7.8552   7.8558   7.8559   8.9783   8.9783   8.9789   8.9789
     9.3375   9.3390

          k =-0.1667 0.5000-0.1667 ( 12424 PWs)   bands (ev):

    -2.5413  -2.5408  -1.0470  -1.0464  -1.0428  -1.0419   0.4331   0.4340
     0.4361   0.4369   0.4378   0.4395   1.8947   1.8953   1.9018   1.9021
     1.9022   1.9031   3.3425   3.3429   3.3464   3.3469   3.3484   3.3487
     4.7062   4.7063   4.7063   4.7075   4.7706   4.7709   4.7750   4.7753
     4.8025   4.8029   6.1379   6.1385   6.1421   6.1431   6.2232   6.2236
     6.2236   6.2247   7.5393   7.5398   7.5413   7.5421   7.6406   7.6410
     7.8550   7.8552   7.8553   7.8566   8.9780   8.9782   8.9787   8.9796
     9.3378   9.3389

          k =-0.5000 0.1667 0.5000 ( 12456 PWs)   bands (ev):

    -2.0442  -2.0415  -2.0392  -2.0370  -0.5528  -0.5501  -0.5478  -0.5455
     0.9226   0.9253   0.9276   0.9299   2.3761   2.3767   2.3782   2.3805
     2.3815   2.3819   2.3831   2.3851   3.8158   3.8164   3.8179   3.8203
     3.8213   3.8216   3.8229   3.8248   5.1698   5.1726   5.1752   5.1775
     5.2744   5.2752   5.2765   5.2789   5.2799   5.2805   5.2816   5.2837
     6.6667   6.6680   6.6693   6.6704   8.0980   8.0995   8.1006   8.1018
     8.4083   8.4108   8.4126   8.4148   9.3871   9.3885   9.3891   9.3917
     9.3929   9.3947

          k =-0.5000 0.5000 0.1667 ( 12456 PWs)   bands (ev):

    -2.0426  -2.0415  -2.0390  -2.0388  -0.5512  -0.5501  -0.5476  -0.5474
     0.9243   0.9254   0.9278   0.9280   2.3766   2.3780   2.3785   2.3800
     2.3807   2.3823   2.3832   2.3838   3.8163   3.8177   3.8182   3.8198
     3.8204   3.8220   3.8230   3.8236   5.1716   5.1728   5.1753   5.1755
     5.2751   5.2764   5.2771   5.2784   5.2792   5.2809   5.2815   5.2823
     6.6675   6.6681   6.6693   6.6695   8.0988   8.0995   8.1008   8.1009
     8.4097   8.4107   8.4130   8.4131   9.3874   9.3890   9.3895   9.3913
     9.3924   9.3941

     the Fermi energy is     7.8158 ev

!    total energy              =   -1264.06446411 Ry
     Harris-Foulkes estimate   =   -1264.06446440 Ry
     estimated scf accuracy    <       0.00000028 Ry

     total all-electron energy =    -15540.633441 Ry

     The total energy is the sum of the following terms:

     one-electron contribution =     101.26114940 Ry
     hartree contribution      =       0.20240071 Ry
     xc contribution           =     -82.91843130 Ry
     ewald contribution        =    -172.93188273 Ry
     one-center paw contrib.   =   -1109.68036901 Ry
     smearing contrib. (-TS)   =       0.00266882 Ry

     convergence has been achieved in   9 iterations

     Forces acting on atoms (cartesian axes, Ry/au):

     atom    1 type  1   force =    -0.00000599    0.00000261    0.00001741
     atom    2 type  1   force =    -0.00009144    0.00021976    0.00008309
     atom    3 type  1   force =     0.00022373   -0.00003155   -0.00051619
     atom    4 type  1   force =    -0.00005557   -0.00016050   -0.00034841
     atom    5 type  1   force =    -0.00043885   -0.00039745    0.00032357
     atom    6 type  1   force =    -0.00014882    0.00043512    0.00000338
     atom    7 type  1   force =    -0.00015017   -0.00055286    0.00032683
     atom    8 type  1   force =     0.00001871   -0.00007522   -0.00025786
     atom    9 type  1   force =     0.00000732   -0.00007573    0.00011626
     atom   10 type  1   force =    -0.00016697   -0.00009252   -0.00068678
     atom   11 type  1   force =    -0.00024415   -0.00025519   -0.00039370
     atom   12 type  1   force =    -0.00008677    0.00002677   -0.00006841
     atom   13 type  1   force =    -0.00019390   -0.00032925   -0.00002639
     atom   14 type  1   force =    -0.00002939    0.00014630    0.00042538
     atom   15 type  1   force =    -0.00050893    0.00032716    0.00051661
     atom   16 type  1   force =     0.00062636    0.00049071    0.00013718
     atom   17 type  1   force =    -0.00044102    0.00002303    0.00009935
     atom   18 type  1   force =     0.00020706   -0.00004113    0.00042495
     atom   19 type  1   force =     0.00052416    0.00023466   -0.00009084
     atom   20 type  1   force =     0.00007234    0.00021521    0.00006365
     atom   21 type  1   force =     0.00019328   -0.00054529    0.00011678
     atom   22 type  1   force =    -0.00014496    0.00059453    0.00012925
     atom   23 type  1   force =     0.00011868   -0.00010706   -0.00022148
     atom   24 type  1   force =     0.00013190    0.00013852   -0.00008845
     atom   25 type  1   force =     0.00010672   -0.00016442    0.00033716
     atom   26 type  1   force =     0.00031122   -0.00023256   -0.00024651
     atom   27 type  1   force =    -0.00015924    0.00001779    0.00011147
     atom   28 type  1   force =    -0.00009057    0.00023917   -0.00006533
     atom   29 type  1   force =     0.00083446   -0.00033581   -0.00009400
     atom   30 type  1   force =    -0.00025773    0.00003803    0.00025319
     atom   31 type  1   force =    -0.00008601   -0.00004375   -0.00034797
     atom   32 type  1   force =    -0.00007545    0.00029092   -0.00003319

     Total force =     0.002736     Total SCF correction =     0.000494
     SCF correction compared to forces is large: reduce conv_thr to get better values


     Computing stress (Cartesian axis) and pressure

          total   stress  (Ry/bohr**3)                   (kbar)     P=   -1.14
  -0.00000776  -0.00000000  -0.00000000         -1.14     -0.00     -0.00
  -0.00000000  -0.00000776   0.00000000         -0.00     -1.14      0.00
  -0.00000000   0.00000000  -0.00000776         -0.00      0.00     -1.14


     Writing output data file fe_scf_fcc_2.save/

     init_run     :     13.54s CPU     13.67s WALL (       1 calls)
     electrons    :    177.64s CPU    179.34s WALL (       1 calls)
     forces       :      6.65s CPU      6.69s WALL (       1 calls)
     stress       :      8.37s CPU      8.37s WALL (       1 calls)

     Called by init_run:
     wfcinit      :     12.81s CPU     12.91s WALL (       1 calls)
     potinit      :      0.32s CPU      0.34s WALL (       1 calls)
     hinit0       :      0.16s CPU      0.16s WALL (       1 calls)

     Called by electrons:
     c_bands      :    153.57s CPU    154.76s WALL (      10 calls)
     sum_band     :     19.39s CPU     19.76s WALL (      10 calls)
     v_of_rho     :      0.69s CPU      0.72s WALL (      10 calls)
     newd         :      1.95s CPU      2.07s WALL (      10 calls)
     PAW_pot      :      2.39s CPU      2.39s WALL (      10 calls)
     mix_rho      :      0.09s CPU      0.10s WALL (      10 calls)

     Called by c_bands:
     init_us_2    :      1.11s CPU      1.12s WALL (     322 calls)
     cegterg      :    151.47s CPU    152.64s WALL (     140 calls)

     Called by sum_band:
     sum_band:bec :      0.03s CPU      0.03s WALL (     140 calls)
     addusdens    :      1.88s CPU      2.04s WALL (      10 calls)

     Called by *egterg:
     h_psi        :     92.73s CPU     93.95s WALL (     495 calls)
     s_psi        :     35.88s CPU     35.89s WALL (     495 calls)
     g_psi        :      0.14s CPU      0.14s WALL (     341 calls)
     cdiaghg      :      3.90s CPU      3.90s WALL (     467 calls)

     Called by h_psi:
     h_psi:pot    :     92.48s CPU     93.69s WALL (     495 calls)
     h_psi:calbec :     37.28s CPU     37.37s WALL (     495 calls)
     vloc_psi     :     19.25s CPU     20.38s WALL (     495 calls)
     add_vuspsi   :     35.94s CPU     35.95s WALL (     495 calls)

     General routines
     calbec       :     57.81s CPU     57.91s WALL (     705 calls)
     fft          :      0.36s CPU      0.38s WALL (     154 calls)
     ffts         :      0.02s CPU      0.02s WALL (      20 calls)
     fftw         :     20.98s CPU     22.19s WALL (   53456 calls)
     interpolate  :      0.03s CPU      0.04s WALL (      10 calls)

     Parallel routines
     fft_scatt_xy :      2.59s CPU      2.75s WALL (   53630 calls)
     fft_scatt_yz :      5.41s CPU      5.74s WALL (   53630 calls)

     PWSCF        :   3m26.59s CPU   3m28.58s WALL


   This run was terminated on:  10:56: 3   8Apr2020            

=------------------------------------------------------------------------------=
   JOB DONE.
=------------------------------------------------------------------------------=
