
     Program PWSCF v.6.4.1 starts on  8Apr2020 at  6:15: 9 

     This program is part of the open-source Quantum ESPRESSO suite
     for quantum simulation of materials; please cite
         "P. Giannozzi et al., J. Phys.:Condens. Matter 21 395502 (2009);
         "P. Giannozzi et al., J. Phys.:Condens. Matter 29 465901 (2017);
          URL http://www.quantum-espresso.org", 
     in publications or presentations arising from this work. More details at
     http://www.quantum-espresso.org/quote

     Parallel version (MPI), running on     4 processors

     MPI processes distributed on     1 nodes
     R & G space division:  proc/nbgrp/npool/nimage =       4
     Reading input from wd/ecut/file_000065.in
Warning: card &IONS ignored
Warning: card ION_DYNAMICS = 'BFGS', ignored
Warning: card / ignored
Warning: card &CELL ignored
Warning: card CELL_DYNAMICS = 'BFGS', ignored
Warning: card CELL_FACTOR = 2.0, ignored
Warning: card PRESS = 0.0, ignored
Warning: card / ignored

     Current dimensions of program PWSCF are:
     Max number of different atomic species (ntypx) = 10
     Max number of k-points (npk) =  40000
     Max angular momentum in pseudopotentials (lmaxx) =  3
               file Al.pbe-nl-kjpaw_psl.1.0.0.UPF: wavefunction(s)  3S 3P renormalized

     Subspace diagonalization in iterative solution of the eigenvalue problem:
     a serial algorithm will be used


     Parallelization info
     --------------------
     sticks:   dense  smooth     PW     G-vecs:    dense   smooth      PW
     Min         464     464    401                15059    15059   12121
     Max         467     467    402                15063    15063   12124
     Sum        1861    1861   1605                60245    60245   48489



     bravais-lattice index     =            0
     lattice parameter (alat)  =      15.2712  a.u.
     unit-cell volume          =    3561.3897 (a.u.)^3
     number of atoms/cell      =           32
     number of atomic types    =            1
     number of electrons       =        96.00
     number of Kohn-Sham states=           58
     kinetic-energy cutoff     =      80.0000  Ry
     charge density cutoff     =     100.0000  Ry
     convergence threshold     =      1.0E-06
     mixing beta               =       0.1000
     number of iterations used =           10  TF        mixing
     Exchange-correlation      = SLA PW PBX PBC ( 1  4  3  4 0 0)

     celldm(1)=  15.271200  celldm(2)=   0.000000  celldm(3)=   0.000000
     celldm(4)=   0.000000  celldm(5)=   0.000000  celldm(6)=   0.000000

     crystal axes: (cart. coord. in units of alat)
               a(1) = (   1.000000   0.000000   0.000000 )  
               a(2) = (   0.000000   1.000000   0.000000 )  
               a(3) = (   0.000000   0.000000   1.000000 )  

     reciprocal axes: (cart. coord. in units 2 pi/alat)
               b(1) = (  1.000000  0.000000  0.000000 )  
               b(2) = (  0.000000  1.000000  0.000000 )  
               b(3) = (  0.000000  0.000000  1.000000 )  


     PseudoPot. # 1 for Al read from file:
     /opt/pp/Al.pbe-nl-kjpaw_psl.1.0.0.UPF
     MD5 check sum: 1b67f78b73fe58c7924490f171ce8a1e
     Pseudo is Projector augmented-wave + core cor, Zval =  3.0
     Generated using "atomic" code by A. Dal Corso v.6.3
     Shape of augmentation charge: PSQ
     Using radial grid of 1135 points,  4 beta functions with: 
                l(1) =   0
                l(2) =   0
                l(3) =   1
                l(4) =   1
     Q(r) pseudized with 0 coefficients 


     atomic species   valence    mass     pseudopotential
        Al             3.00    26.98200     Al( 1.00)

     No symmetry found



   Cartesian axes

     site n.     atom                  positions (alat units)
         1           Al  tau(   1) = (  -0.0000327   0.0000095   0.0000680  )
         2           Al  tau(   2) = (   0.2500796   0.2498100   0.0000703  )
         3           Al  tau(   3) = (   0.2499071   0.0000305   0.2502955  )
         4           Al  tau(   4) = (  -0.0000200   0.2502187   0.2501837  )
         5           Al  tau(   5) = (   0.0002558   0.0002521   0.4998810  )
         6           Al  tau(   6) = (   0.2501194   0.2498326   0.5000036  )
         7           Al  tau(   7) = (   0.2500278   0.0001539   0.7498880  )
         8           Al  tau(   8) = (   0.0000549   0.2501136   0.7502101  )
         9           Al  tau(   9) = (   0.0002375   0.5001078  -0.0000154  )
        10           Al  tau(  10) = (   0.2501396   0.7501762   0.0004054  )
        11           Al  tau(  11) = (   0.2501891   0.5001088   0.2502510  )
        12           Al  tau(  12) = (   0.0000383   0.7500455   0.2500253  )
        13           Al  tau(  13) = (   0.0001102   0.5001562   0.5000990  )
        14           Al  tau(  14) = (   0.2499640   0.7500632   0.4998706  )
        15           Al  tau(  15) = (   0.2503366   0.4997894   0.7496960  )
        16           Al  tau(  16) = (  -0.0003280   0.7497055   0.7499931  )
        17           Al  tau(  17) = (   0.5002037  -0.0001004  -0.0000387  )
        18           Al  tau(  18) = (   0.7499123   0.2500941  -0.0002332  )
        19           Al  tau(  19) = (   0.7496354  -0.0000959   0.2500771  )
        20           Al  tau(  20) = (   0.4999751   0.2499614   0.2498317  )
        21           Al  tau(  21) = (   0.4999211   0.0002929   0.4999726  )
        22           Al  tau(  22) = (   0.7500684   0.2496958   0.4999523  )
        23           Al  tau(  23) = (   0.7500357  -0.0000687   0.7500257  )
        24           Al  tau(  24) = (   0.5000114   0.2498864   0.7499948  )
        25           Al  tau(  25) = (   0.4998526   0.5001156  -0.0002192  )
        26           Al  tau(  26) = (   0.7497723   0.7500978   0.0002736  )
        27           Al  tau(  27) = (   0.7501007   0.4998018   0.2499462  )
        28           Al  tau(  28) = (   0.5000878   0.7497908   0.2502093  )
        29           Al  tau(  29) = (   0.4996761   0.5001027   0.5000404  )
        30           Al  tau(  30) = (   0.7501658   0.7499872   0.4998547  )
        31           Al  tau(  31) = (   0.7499472   0.5000095   0.7501393  )
        32           Al  tau(  32) = (   0.5000142   0.7499486   0.7499177  )

     number of k points=    14  Marzari-Vanderbilt smearing, width (Ry)=  0.0200
                       cart. coord. in units 2pi/alat
        k(    1) = (   0.1666667   0.1666667   0.1666667), wk =   0.1481481
        k(    2) = (   0.1666667   0.1666667  -0.5000000), wk =   0.1481481
        k(    3) = (   0.1666667  -0.5000000  -0.5000000), wk =   0.1481481
        k(    4) = (  -0.5000000  -0.5000000  -0.5000000), wk =   0.0740741
        k(    5) = (  -0.1666667  -0.1666667   0.1666667), wk =   0.1481481
        k(    6) = (  -0.1666667   0.1666667  -0.1666667), wk =   0.1481481
        k(    7) = (   0.1666667  -0.1666667  -0.1666667), wk =   0.1481481
        k(    8) = (  -0.1666667   0.1666667   0.5000000), wk =   0.1481481
        k(    9) = (  -0.5000000  -0.1666667   0.1666667), wk =   0.1481481
        k(   10) = (   0.5000000  -0.1666667  -0.1666667), wk =   0.1481481
        k(   11) = (  -0.1666667  -0.5000000   0.1666667), wk =   0.1481481
        k(   12) = (  -0.1666667   0.5000000  -0.1666667), wk =   0.1481481
        k(   13) = (  -0.5000000   0.1666667   0.5000000), wk =   0.1481481
        k(   14) = (  -0.5000000   0.5000000   0.1666667), wk =   0.1481481

     Dense  grid:    60245 G-vectors     FFT dimensions: (  50,  50,  50)

     Estimated max dynamical RAM per process >     311.75 MB

     Estimated total dynamical RAM >       1.22 GB

     Initial potential from superposition of free atoms

     starting charge   95.92671, renormalised to   96.00000
     Starting wfcs are  128 randomized atomic wfcs
     Checking if some PAW data can be deallocated... 

     total cpu time spent up to now is       76.5 secs

     Self-consistent Calculation

     iteration #  1     ecut=    80.00 Ry     beta= 0.10
     Davidson diagonalization with overlap
     ethr =  1.00E-02,  avg # of iterations =  3.1

     Threshold (ethr) on eigenvalues was too large:
     Diagonalizing with lowered threshold

     Davidson diagonalization with overlap
     ethr =  1.93E-04,  avg # of iterations =  4.0

     total cpu time spent up to now is      310.4 secs

     total energy              =   -1264.10986434 Ry
     Harris-Foulkes estimate   =   -1264.11600678 Ry
     estimated scf accuracy    <       0.18062016 Ry

     iteration #  2     ecut=    80.00 Ry     beta= 0.10
     Davidson diagonalization with overlap
     ethr =  1.88E-04,  avg # of iterations =  1.0

     total cpu time spent up to now is      381.1 secs

     total energy              =   -1264.06303889 Ry
     Harris-Foulkes estimate   =   -1264.11063778 Ry
     estimated scf accuracy    <       0.15685828 Ry

     iteration #  3     ecut=    80.00 Ry     beta= 0.10
     Davidson diagonalization with overlap
     ethr =  1.63E-04,  avg # of iterations =  1.0

     total cpu time spent up to now is      450.6 secs

     total energy              =   -1264.06599247 Ry
     Harris-Foulkes estimate   =   -1264.06609209 Ry
     estimated scf accuracy    <       0.00062863 Ry

     iteration #  4     ecut=    80.00 Ry     beta= 0.10
     Davidson diagonalization with overlap
     ethr =  6.55E-07,  avg # of iterations =  4.9

     total cpu time spent up to now is      618.7 secs

     total energy              =   -1264.06657173 Ry
     Harris-Foulkes estimate   =   -1264.06675739 Ry
     estimated scf accuracy    <       0.00034947 Ry

     iteration #  5     ecut=    80.00 Ry     beta= 0.10
     Davidson diagonalization with overlap
     ethr =  3.64E-07,  avg # of iterations =  1.0

     total cpu time spent up to now is      690.6 secs

     total energy              =   -1264.06639031 Ry
     Harris-Foulkes estimate   =   -1264.06658291 Ry
     estimated scf accuracy    <       0.00021930 Ry

     iteration #  6     ecut=    80.00 Ry     beta= 0.10
     Davidson diagonalization with overlap
     ethr =  2.28E-07,  avg # of iterations =  2.1

     total cpu time spent up to now is      795.8 secs

     total energy              =   -1264.06645366 Ry
     Harris-Foulkes estimate   =   -1264.06645449 Ry
     estimated scf accuracy    <       0.00001362 Ry

     iteration #  7     ecut=    80.00 Ry     beta= 0.10
     Davidson diagonalization with overlap
     ethr =  1.42E-08,  avg # of iterations =  2.4

     total cpu time spent up to now is      871.7 secs

     total energy              =   -1264.06644610 Ry
     Harris-Foulkes estimate   =   -1264.06645469 Ry
     estimated scf accuracy    <       0.00000568 Ry

     iteration #  8     ecut=    80.00 Ry     beta= 0.10
     Davidson diagonalization with overlap
     ethr =  5.92E-09,  avg # of iterations =  2.4

     total cpu time spent up to now is      963.5 secs

     total energy              =   -1264.06644743 Ry
     Harris-Foulkes estimate   =   -1264.06644690 Ry
     estimated scf accuracy    <       0.00000123 Ry

     iteration #  9     ecut=    80.00 Ry     beta= 0.10
     Davidson diagonalization with overlap
     ethr =  1.29E-09,  avg # of iterations =  1.9

     total cpu time spent up to now is     1037.2 secs

     End of self-consistent calculation

          k = 0.1667 0.1667 0.1667 ( 43012 PWs)   bands (ev):

    -3.0438  -1.5447  -1.5422  -1.5391  -0.0598  -0.0590  -0.0568  -0.0556
    -0.0543  -0.0507   1.4106   1.4118   1.4140   1.4152   1.4163   1.4169
     1.4191   2.8648   2.8666   2.8679   2.8686   2.8705   2.8731   4.2326
     4.2333   4.2340   4.3296   4.3303   4.3311   5.6411   5.6414   5.6444
     5.6451   5.6465   5.6478   5.7577   7.0585   7.0589   7.0605   7.0622
     7.0632   7.0640   7.0720   7.0745   7.0777   7.4042   7.4050   7.4057
     8.4756   8.4762   8.4779   8.4793   8.4805   8.4811   8.8154   8.8168
     8.8182   8.8190

          k = 0.1667 0.1667-0.5000 ( 43046 PWs)   bands (ev):

    -2.5427  -2.5402  -1.0466  -1.0459  -1.0443  -1.0427   0.4321   0.4340
     0.4356   0.4366   0.4383   0.4389   1.8943   1.8956   1.9002   1.9009
     1.9027   1.9035   3.3433   3.3443   3.3447   3.3450   3.3473   3.3493
     4.7047   4.7052   4.7071   4.7079   4.7713   4.7726   4.7726   4.7738
     4.8018   4.8030   6.1382   6.1389   6.1405   6.1423   6.2223   6.2228
     6.2236   6.2245   7.5384   7.5390   7.5407   7.5424   7.6396   7.6410
     7.8533   7.8540   7.8557   7.8567   8.9770   8.9773   8.9785   8.9792
     9.3365   9.3387

          k = 0.1667-0.5000-0.5000 ( 43068 PWs)   bands (ev):

    -2.0432  -2.0422  -2.0397  -2.0384  -0.5517  -0.5507  -0.5483  -0.5469
     0.9237   0.9247   0.9272   0.9286   2.3762   2.3776   2.3783   2.3792
     2.3801   2.3823   2.3832   2.3839   3.8158   3.8173   3.8180   3.8190
     3.8197   3.8220   3.8230   3.8237   5.1710   5.1721   5.1746   5.1761
     5.2745   5.2759   5.2765   5.2775   5.2786   5.2806   5.2817   5.2823
     6.6669   6.6675   6.6687   6.6695   8.0982   8.0988   8.1000   8.1008
     8.4091   8.4100   8.4121   8.4133   9.3865   9.3879   9.3894   9.3907
     9.3913   9.3943

          k =-0.5000-0.5000-0.5000 ( 42920 PWs)   bands (ev):

    -1.5468  -1.5460  -1.5433  -1.5428  -1.5416  -1.5397  -1.5392  -1.5366
     2.8554   2.8558   2.8571   2.8577   2.8589   2.8599   2.8601   2.8611
     2.8613   2.8620   2.8623   2.8629   2.8633   2.8636   2.8643   2.8644
     2.8653   2.8662   2.8668   2.8670   2.8678   2.8694   2.8708   2.8729
     7.1476   7.1486   7.1493   7.1498   7.1510   7.1516   7.1521   7.1523
     7.1525   7.1532   7.1544   7.1549   7.1556   7.1558   7.1561   7.1567
     7.1572   7.1579   7.1583   7.1585   7.1595   7.1602   7.1619   7.1621
    11.3521  11.3539

          k =-0.1667-0.1667 0.1667 ( 43012 PWs)   bands (ev):

    -3.0438  -1.5441  -1.5422  -1.5397  -0.0596  -0.0582  -0.0569  -0.0555
    -0.0531  -0.0529   1.4101   1.4133   1.4137   1.4146   1.4160   1.4169
     1.4192   2.8657   2.8667   2.8674   2.8687   2.8702   2.8728   4.2329
     4.2334   4.2338   4.3299   4.3303   4.3308   5.6402   5.6432   5.6437
     5.6448   5.6465   5.6480   5.7577   7.0586   7.0600   7.0608   7.0618
     7.0626   7.0636   7.0725   7.0745   7.0770   7.4045   7.4050   7.4054
     8.4759   8.4771   8.4781   8.4789   8.4796   8.4810   8.8154   8.8163
     8.8181   8.8193

          k =-0.1667 0.1667-0.1667 ( 43012 PWs)   bands (ev):

    -3.0438  -1.5446  -1.5420  -1.5394  -0.0600  -0.0586  -0.0564  -0.0553
    -0.0538  -0.0522   1.4111   1.4118   1.4133   1.4145   1.4165   1.4177
     1.4190   2.8660   2.8664   2.8672   2.8685   2.8707   2.8727   4.2326
     4.2333   4.2341   4.3295   4.3303   4.3312   5.6413   5.6419   5.6431
     5.6444   5.6471   5.6487   5.7577   7.0586   7.0595   7.0602   7.0620
     7.0631   7.0641   7.0720   7.0745   7.0773   7.4041   7.4050   7.4058
     8.4758   8.4767   8.4774   8.4795   8.4801   8.4811   8.8156   8.8165
     8.8173   8.8189

          k = 0.1667-0.1667-0.1667 ( 43012 PWs)   bands (ev):

    -3.0438  -1.5443  -1.5426  -1.5391  -0.0600  -0.0583  -0.0568  -0.0563
    -0.0549  -0.0500   1.4112   1.4118   1.4128   1.4148   1.4158   1.4166
     1.4208   2.8650   2.8661   2.8673   2.8691   2.8701   2.8739   4.2325
     4.2333   4.2342   4.3294   4.3303   4.3313   5.6410   5.6421   5.6435
     5.6449   5.6462   5.6487   5.7577   7.0582   7.0597   7.0602   7.0619
     7.0625   7.0643   7.0727   7.0743   7.0777   7.4040   7.4050   7.4059
     8.4752   8.4770   8.4776   8.4795   8.4799   8.4813   8.8153   8.8158
     8.8175   8.8191

          k =-0.1667 0.1667 0.5000 ( 43046 PWs)   bands (ev):

    -2.5427  -2.5402  -1.0472  -1.0452  -1.0447  -1.0423   0.4324   0.4334
     0.4352   0.4367   0.4382   0.4396   1.8941   1.8954   1.9001   1.9013
     1.9025   1.9038   3.3430   3.3441   3.3448   3.3460   3.3470   3.3490
     4.7043   4.7056   4.7069   4.7081   4.7710   4.7721   4.7729   4.7741
     4.8018   4.8031   6.1376   6.1397   6.1401   6.1426   6.2218   6.2230
     6.2237   6.2247   7.5382   7.5393   7.5408   7.5422   7.6396   7.6410
     7.8528   7.8545   7.8554   7.8570   8.9767   8.9776   8.9785   8.9793
     9.3369   9.3384

          k =-0.5000-0.1667 0.1667 ( 43046 PWs)   bands (ev):

    -2.5428  -2.5401  -1.0478  -1.0450  -1.0442  -1.0424   0.4325   0.4344
     0.4352   0.4366   0.4376   0.4390   1.8943   1.8953   1.9003   1.9008
     1.9026   1.9039   3.3428   3.3440   3.3451   3.3462   3.3467   3.3490
     4.7047   4.7050   4.7070   4.7083   4.7708   4.7720   4.7732   4.7744
     4.8016   4.8030   6.1369   6.1398   6.1407   6.1425   6.2222   6.2229
     6.2232   6.2250   7.5378   7.5394   7.5412   7.5422   7.6396   7.6410
     7.8533   7.8538   7.8554   7.8572   8.9765   8.9777   8.9780   8.9799
     9.3362   9.3381

          k = 0.5000-0.1667-0.1667 ( 43046 PWs)   bands (ev):

    -2.5428  -2.5401  -1.0482  -1.0450  -1.0443  -1.0421   0.4312   0.4341
     0.4350   0.4366   0.4376   0.4409   1.8944   1.8952   1.8998   1.9013
     1.9029   1.9037   3.3422   3.3435   3.3452   3.3462   3.3473   3.3496
     4.7042   4.7054   4.7071   4.7082   4.7701   4.7715   4.7737   4.7748
     4.8018   4.8032   6.1366   6.1399   6.1406   6.1429   6.2219   6.2231
     6.2237   6.2247   7.5379   7.5393   7.5404   7.5429   7.6396   7.6410
     7.8528   7.8544   7.8556   7.8570   8.9766   8.9776   8.9786   8.9793
     9.3368   9.3382

          k =-0.1667-0.5000 0.1667 ( 43046 PWs)   bands (ev):

    -2.5417  -2.5411  -1.0470  -1.0465  -1.0438  -1.0421   0.4328   0.4335
     0.4354   0.4358   0.4380   0.4401   1.8945   1.8951   1.9014   1.9016
     1.9021   1.9025   3.3426   3.3429   3.3461   3.3465   3.3475   3.3483
     4.7059   4.7060   4.7065   4.7066   4.7706   4.7708   4.7741   4.7746
     4.8023   4.8026   6.1378   6.1383   6.1411   6.1428   6.2230   6.2231
     6.2235   6.2236   7.5385   7.5397   7.5409   7.5414   7.6401   7.6405
     7.8546   7.8547   7.8552   7.8554   8.9777   8.9777   8.9783   8.9783
     9.3376   9.3387

          k =-0.1667 0.5000-0.1667 ( 43046 PWs)   bands (ev):

    -2.5417  -2.5411  -1.0473  -1.0467  -1.0432  -1.0422   0.4327   0.4337
     0.4358   0.4366   0.4375   0.4392   1.8944   1.8950   1.9015   1.9017
     1.9019   1.9028   3.3422   3.3426   3.3461   3.3466   3.3481   3.3484
     4.7058   4.7059   4.7060   4.7071   4.7702   4.7706   4.7747   4.7750
     4.8022   4.8025   6.1375   6.1381   6.1417   6.1427   6.2227   6.2231
     6.2232   6.2243   7.5388   7.5393   7.5408   7.5417   7.6401   7.6405
     7.8544   7.8546   7.8547   7.8560   8.9774   8.9776   8.9781   8.9790
     9.3372   9.3385

          k =-0.5000 0.1667 0.5000 ( 43068 PWs)   bands (ev):

    -2.0446  -2.0419  -2.0396  -2.0373  -0.5531  -0.5504  -0.5481  -0.5459
     0.9223   0.9250   0.9273   0.9296   2.3758   2.3764   2.3779   2.3802
     2.3812   2.3816   2.3828   2.3848   3.8154   3.8161   3.8176   3.8199
     3.8210   3.8213   3.8225   3.8245   5.1695   5.1723   5.1748   5.1772
     5.2740   5.2749   5.2762   5.2786   5.2795   5.2801   5.2812   5.2833
     6.6663   6.6676   6.6689   6.6699   8.0975   8.0990   8.1001   8.1013
     8.4078   8.4103   8.4121   8.4143   9.3860   9.3869   9.3884   9.3920
     9.3924   9.3948

          k =-0.5000 0.5000 0.1667 ( 43068 PWs)   bands (ev):

    -2.0430  -2.0419  -2.0394  -2.0392  -0.5515  -0.5504  -0.5479  -0.5478
     0.9239   0.9250   0.9276   0.9277   2.3763   2.3777   2.3782   2.3797
     2.3804   2.3820   2.3829   2.3835   3.8160   3.8174   3.8179   3.8195
     3.8201   3.8217   3.8227   3.8233   5.1712   5.1724   5.1750   5.1752
     5.2747   5.2759   5.2767   5.2780   5.2788   5.2805   5.2811   5.2819
     6.6671   6.6677   6.6689   6.6690   8.0983   8.0989   8.1002   8.1004
     8.4092   8.4102   8.4125   8.4126   9.3868   9.3885   9.3891   9.3917
     9.3933   9.3938

     the Fermi energy is     7.8152 ev

!    total energy              =   -1264.06644714 Ry
     Harris-Foulkes estimate   =   -1264.06644750 Ry
     estimated scf accuracy    <       0.00000028 Ry

     total all-electron energy =    -15540.635424 Ry

     The total energy is the sum of the following terms:

     one-electron contribution =     101.25690456 Ry
     hartree contribution      =       0.20232896 Ry
     xc contribution           =     -82.91718752 Ry
     ewald contribution        =    -172.93188273 Ry
     one-center paw contrib.   =   -1109.67927685 Ry
     smearing contrib. (-TS)   =       0.00266644 Ry

     convergence has been achieved in   9 iterations

     Forces acting on atoms (cartesian axes, Ry/au):

     atom    1 type  1   force =    -0.00000723    0.00000417    0.00001829
     atom    2 type  1   force =    -0.00009028    0.00022199    0.00008274
     atom    3 type  1   force =     0.00022471   -0.00003339   -0.00051532
     atom    4 type  1   force =    -0.00005744   -0.00016080   -0.00035063
     atom    5 type  1   force =    -0.00043828   -0.00039696    0.00032264
     atom    6 type  1   force =    -0.00014862    0.00043491    0.00000554
     atom    7 type  1   force =    -0.00014971   -0.00055311    0.00032557
     atom    8 type  1   force =     0.00001684   -0.00007558   -0.00025872
     atom    9 type  1   force =     0.00000761   -0.00007706    0.00011628
     atom   10 type  1   force =    -0.00016477   -0.00009403   -0.00068888
     atom   11 type  1   force =    -0.00024548   -0.00025500   -0.00039763
     atom   12 type  1   force =    -0.00008648    0.00002623   -0.00006959
     atom   13 type  1   force =    -0.00019729   -0.00033041   -0.00002502
     atom   14 type  1   force =    -0.00002981    0.00014807    0.00042428
     atom   15 type  1   force =    -0.00050867    0.00032541    0.00052062
     atom   16 type  1   force =     0.00062644    0.00048954    0.00014025
     atom   17 type  1   force =    -0.00044347    0.00002052    0.00010035
     atom   18 type  1   force =     0.00020888   -0.00003783    0.00042367
     atom   19 type  1   force =     0.00052621    0.00023497   -0.00009116
     atom   20 type  1   force =     0.00007064    0.00021498    0.00006388
     atom   21 type  1   force =     0.00019095   -0.00054354    0.00011645
     atom   22 type  1   force =    -0.00014583    0.00059574    0.00012907
     atom   23 type  1   force =     0.00011809   -0.00010733   -0.00022326
     atom   24 type  1   force =     0.00013219    0.00013958   -0.00008857
     atom   25 type  1   force =     0.00010835   -0.00016227    0.00033771
     atom   26 type  1   force =     0.00031203   -0.00023648   -0.00024565
     atom   27 type  1   force =    -0.00015801    0.00001746    0.00010944
     atom   28 type  1   force =    -0.00008935    0.00024041   -0.00006669
     atom   29 type  1   force =     0.00083618   -0.00033526   -0.00009185
     atom   30 type  1   force =    -0.00025863    0.00003599    0.00025325
     atom   31 type  1   force =    -0.00008577   -0.00004215   -0.00034512
     atom   32 type  1   force =    -0.00007397    0.00029123   -0.00003191

     Total force =     0.002739     Total SCF correction =     0.000476
     SCF correction compared to forces is large: reduce conv_thr to get better values


     Computing stress (Cartesian axis) and pressure

          total   stress  (Ry/bohr**3)                   (kbar)     P=   -0.96
  -0.00000652  -0.00000000   0.00000000         -0.96     -0.00      0.00
  -0.00000000  -0.00000652   0.00000000         -0.00     -0.96      0.00
   0.00000000   0.00000000  -0.00000652          0.00      0.00     -0.96


     Writing output data file fe_scf_fcc_2.save/

     init_run     :     74.04s CPU     75.98s WALL (       1 calls)
     electrons    :    942.42s CPU    960.68s WALL (       1 calls)
     forces       :     30.50s CPU     30.61s WALL (       1 calls)
     stress       :     38.00s CPU     39.10s WALL (       1 calls)

     Called by init_run:
     wfcinit      :     73.41s CPU     75.29s WALL (       1 calls)
     potinit      :      0.40s CPU      0.42s WALL (       1 calls)
     hinit0       :      0.15s CPU      0.18s WALL (       1 calls)

     Called by electrons:
     c_bands      :    858.20s CPU    875.11s WALL (      10 calls)
     sum_band     :     80.13s CPU     81.29s WALL (      10 calls)
     v_of_rho     :      0.24s CPU      0.27s WALL (      10 calls)
     newd         :      0.62s CPU      0.63s WALL (      10 calls)
     PAW_pot      :      3.60s CPU      3.69s WALL (      10 calls)
     mix_rho      :      0.06s CPU      0.07s WALL (      10 calls)

     Called by c_bands:
     init_us_2    :      5.67s CPU      5.82s WALL (     322 calls)
     cegterg      :    844.66s CPU    861.17s WALL (     140 calls)

     Called by sum_band:
     sum_band:bec :      0.04s CPU      0.04s WALL (     140 calls)
     addusdens    :      0.50s CPU      0.53s WALL (      10 calls)

     Called by *egterg:
     h_psi        :    420.25s CPU    429.13s WALL (     486 calls)
     s_psi        :    184.07s CPU    186.71s WALL (     486 calls)
     g_psi        :      0.75s CPU      0.76s WALL (     332 calls)
     cdiaghg      :      5.67s CPU      5.76s WALL (     458 calls)

     Called by h_psi:
     h_psi:pot    :    419.10s CPU    426.47s WALL (     486 calls)
     h_psi:calbec :    199.49s CPU    201.86s WALL (     486 calls)
     vloc_psi     :     34.51s CPU     37.20s WALL (     486 calls)
     add_vuspsi   :    185.10s CPU    187.41s WALL (     486 calls)

     General routines
     calbec       :    305.16s CPU    308.35s WALL (     696 calls)
     fft          :      0.20s CPU      0.23s WALL (     136 calls)
     ffts         :      0.01s CPU      0.01s WALL (      10 calls)
     fftw         :     37.12s CPU     40.00s WALL (   53710 calls)

     Parallel routines
     fft_scatt_xy :      3.41s CPU      3.69s WALL (   53856 calls)
     fft_scatt_yz :     14.55s CPU     15.76s WALL (   53856 calls)

     PWSCF        :  18m 5.85s CPU  18m28.59s WALL


   This run was terminated on:   6:33:37   8Apr2020            

=------------------------------------------------------------------------------=
   JOB DONE.
=------------------------------------------------------------------------------=
