
     Program PWSCF v.6.3 starts on 12Mar2020 at  1: 2:46 

     This program is part of the open-source Quantum ESPRESSO suite
     for quantum simulation of materials; please cite
         "P. Giannozzi et al., J. Phys.:Condens. Matter 21 395502 (2009);
         "P. Giannozzi et al., J. Phys.:Condens. Matter 29 465901 (2017);
          URL http://www.quantum-espresso.org", 
     in publications or presentations arising from this work. More details at
     http://www.quantum-espresso.org/quote

     Parallel version (MPI & OpenMP), running on      20 processor cores
     Number of MPI processes:                20
     Threads/MPI process:                     1

     MPI processes distributed on     1 nodes
     R & G space division:  proc/nbgrp/npool/nimage =      20
     Reading input from wd/ecut/file_000050.in
Warning: card &IONS ignored
Warning: card ION_DYNAMICS = 'BFGS', ignored
Warning: card / ignored
Warning: card &CELL ignored
Warning: card CELL_DYNAMICS = 'BFGS', ignored
Warning: card CELL_FACTOR = 2.0, ignored
Warning: card PRESS = 0.0, ignored
Warning: card / ignored

     Current dimensions of program PWSCF are:
     Max number of different atomic species (ntypx) = 10
     Max number of k-points (npk) =  40000
     Max angular momentum in pseudopotentials (lmaxx) =  3
     Message from routine read_upf::
     Pseudo file /rds/homes/b/bxp912/pp/Al.pbe-nl-kjpaw_psl.1.0.0.UPF has been successfully fixed on the fly.
To avoid this message in the future you can permanently fix 
 your pseudo files following instructions given in: 
https://gitlab.com/QEF/q-e/blob/master/upftools/how_to_fix_upf.md
               file Al.pbe-nl-kjpaw_psl.1.0.0.UPF: wavefunction(s)  3S 3P renormalized

     Subspace diagonalization in iterative solution of the eigenvalue problem:
     a serial algorithm will be used

 
     Parallelization info
     --------------------
     sticks:   dense  smooth     PW     G-vecs:    dense   smooth      PW
     Min          97      97     30                 3229     3229     567
     Max          98      98     32                 3232     3232     570
     Sum        1941    1941    609                64589    64589   11363
 


     bravais-lattice index     =            0
     lattice parameter (alat)  =      15.2712  a.u.
     unit-cell volume          =    3561.3897 (a.u.)^3
     number of atoms/cell      =           32
     number of atomic types    =            1
     number of electrons       =        96.00
     number of Kohn-Sham states=           58
     kinetic-energy cutoff     =      29.0000  Ry
     charge density cutoff     =     105.0000  Ry
     convergence threshold     =      1.0E-06
     mixing beta               =       0.1000
     number of iterations used =           10  TF        mixing
     Exchange-correlation      = SLA PW PBX PBC ( 1  4  3  4 0 0)

     celldm(1)=  15.271200  celldm(2)=   0.000000  celldm(3)=   0.000000
     celldm(4)=   0.000000  celldm(5)=   0.000000  celldm(6)=   0.000000

     crystal axes: (cart. coord. in units of alat)
               a(1) = (   1.000000   0.000000   0.000000 )  
               a(2) = (   0.000000   1.000000   0.000000 )  
               a(3) = (   0.000000   0.000000   1.000000 )  

     reciprocal axes: (cart. coord. in units 2 pi/alat)
               b(1) = (  1.000000  0.000000  0.000000 )  
               b(2) = (  0.000000  1.000000  0.000000 )  
               b(3) = (  0.000000  0.000000  1.000000 )  


     PseudoPot. # 1 for Al read from file:
     /rds/homes/b/bxp912/pp/Al.pbe-nl-kjpaw_psl.1.0.0.UPF
     MD5 check sum: 339dbea23cf3ab9a065ad45c0f9085d7
     Pseudo is Projector augmented-wave + core cor, Zval =  3.0
     Generated using "atomic" code by A. Dal Corso v.5.1
     Shape of augmentation charge: PSQ
     Using radial grid of 1135 points,  4 beta functions with: 
                l(1) =   0
                l(2) =   0
                l(3) =   1
                l(4) =   1
     Q(r) pseudized with 0 coefficients 


     atomic species   valence    mass     pseudopotential
        Al             3.00    26.98200     Al( 1.00)

     No symmetry found



   Cartesian axes

     site n.     atom                  positions (alat units)
         1           Al  tau(   1) = (  -0.0000327   0.0000095   0.0000680  )
         2           Al  tau(   2) = (   0.2500796   0.2498100   0.0000703  )
         3           Al  tau(   3) = (   0.2499071   0.0000305   0.2502955  )
         4           Al  tau(   4) = (  -0.0000200   0.2502187   0.2501837  )
         5           Al  tau(   5) = (   0.0002558   0.0002521   0.4998810  )
         6           Al  tau(   6) = (   0.2501194   0.2498326   0.5000036  )
         7           Al  tau(   7) = (   0.2500278   0.0001539   0.7498880  )
         8           Al  tau(   8) = (   0.0000549   0.2501136   0.7502101  )
         9           Al  tau(   9) = (   0.0002375   0.5001078  -0.0000154  )
        10           Al  tau(  10) = (   0.2501396   0.7501762   0.0004054  )
        11           Al  tau(  11) = (   0.2501891   0.5001088   0.2502510  )
        12           Al  tau(  12) = (   0.0000383   0.7500455   0.2500253  )
        13           Al  tau(  13) = (   0.0001102   0.5001562   0.5000990  )
        14           Al  tau(  14) = (   0.2499640   0.7500632   0.4998706  )
        15           Al  tau(  15) = (   0.2503366   0.4997894   0.7496960  )
        16           Al  tau(  16) = (  -0.0003280   0.7497055   0.7499931  )
        17           Al  tau(  17) = (   0.5002037  -0.0001004  -0.0000387  )
        18           Al  tau(  18) = (   0.7499123   0.2500941  -0.0002332  )
        19           Al  tau(  19) = (   0.7496354  -0.0000959   0.2500771  )
        20           Al  tau(  20) = (   0.4999751   0.2499614   0.2498317  )
        21           Al  tau(  21) = (   0.4999211   0.0002929   0.4999726  )
        22           Al  tau(  22) = (   0.7500684   0.2496958   0.4999523  )
        23           Al  tau(  23) = (   0.7500357  -0.0000687   0.7500257  )
        24           Al  tau(  24) = (   0.5000114   0.2498864   0.7499948  )
        25           Al  tau(  25) = (   0.4998526   0.5001156  -0.0002192  )
        26           Al  tau(  26) = (   0.7497723   0.7500978   0.0002736  )
        27           Al  tau(  27) = (   0.7501007   0.4998018   0.2499462  )
        28           Al  tau(  28) = (   0.5000878   0.7497908   0.2502093  )
        29           Al  tau(  29) = (   0.4996761   0.5001027   0.5000404  )
        30           Al  tau(  30) = (   0.7501658   0.7499872   0.4998547  )
        31           Al  tau(  31) = (   0.7499472   0.5000095   0.7501393  )
        32           Al  tau(  32) = (   0.5000142   0.7499486   0.7499177  )

     number of k points=    14  Marzari-Vanderbilt smearing, width (Ry)=  0.0200
                       cart. coord. in units 2pi/alat
        k(    1) = (   0.1666667   0.1666667   0.1666667), wk =   0.1481481
        k(    2) = (   0.1666667   0.1666667  -0.5000000), wk =   0.1481481
        k(    3) = (   0.1666667  -0.5000000  -0.5000000), wk =   0.1481481
        k(    4) = (  -0.5000000  -0.5000000  -0.5000000), wk =   0.0740741
        k(    5) = (  -0.1666667  -0.1666667   0.1666667), wk =   0.1481481
        k(    6) = (  -0.1666667   0.1666667  -0.1666667), wk =   0.1481481
        k(    7) = (   0.1666667  -0.1666667  -0.1666667), wk =   0.1481481
        k(    8) = (  -0.1666667   0.1666667   0.5000000), wk =   0.1481481
        k(    9) = (  -0.5000000  -0.1666667   0.1666667), wk =   0.1481481
        k(   10) = (   0.5000000  -0.1666667  -0.1666667), wk =   0.1481481
        k(   11) = (  -0.1666667  -0.5000000   0.1666667), wk =   0.1481481
        k(   12) = (  -0.1666667   0.5000000  -0.1666667), wk =   0.1481481
        k(   13) = (  -0.5000000   0.1666667   0.5000000), wk =   0.1481481
        k(   14) = (  -0.5000000   0.5000000   0.1666667), wk =   0.1481481

     Dense  grid:    64589 G-vectors     FFT dimensions: (  50,  50,  50)

     Estimated max dynamical RAM per process >      18.36 MB

     Estimated total dynamical RAM >     367.12 MB

     Initial potential from superposition of free atoms

     starting charge   95.92671, renormalised to   96.00000
     Starting wfcs are  128 randomized atomic wfcs
     Checking if some PAW data can be deallocated... 

     total cpu time spent up to now is        2.3 secs

     Self-consistent Calculation

     iteration #  1     ecut=    29.00 Ry     beta= 0.10
     Davidson diagonalization with overlap
     ethr =  1.00E-02,  avg # of iterations =  3.0

     Threshold (ethr) on eigenvalues was too large:
     Diagonalizing with lowered threshold

     Davidson diagonalization with overlap
     ethr =  1.93E-04,  avg # of iterations =  3.6

     total cpu time spent up to now is        7.2 secs

     total energy              =   -1264.10367876 Ry
     Harris-Foulkes estimate   =   -1264.10984649 Ry
     estimated scf accuracy    <       0.18072985 Ry

     iteration #  2     ecut=    29.00 Ry     beta= 0.10
     Davidson diagonalization with overlap
     ethr =  1.88E-04,  avg # of iterations =  1.0

     total cpu time spent up to now is        8.7 secs

     total energy              =   -1264.05669051 Ry
     Harris-Foulkes estimate   =   -1264.10446805 Ry
     estimated scf accuracy    <       0.15689172 Ry

     iteration #  3     ecut=    29.00 Ry     beta= 0.10
     Davidson diagonalization with overlap
     ethr =  1.63E-04,  avg # of iterations =  1.0

     total cpu time spent up to now is       10.3 secs

     total energy              =   -1264.05958684 Ry
     Harris-Foulkes estimate   =   -1264.05971819 Ry
     estimated scf accuracy    <       0.00061318 Ry

     iteration #  4     ecut=    29.00 Ry     beta= 0.10
     Davidson diagonalization with overlap
     ethr =  6.39E-07,  avg # of iterations =  4.9

     total cpu time spent up to now is       13.7 secs

     total energy              =   -1264.06020386 Ry
     Harris-Foulkes estimate   =   -1264.06037157 Ry
     estimated scf accuracy    <       0.00034810 Ry

     iteration #  5     ecut=    29.00 Ry     beta= 0.10
     Davidson diagonalization with overlap
     ethr =  3.63E-07,  avg # of iterations =  1.0

     total cpu time spent up to now is       15.2 secs

     total energy              =   -1264.06001855 Ry
     Harris-Foulkes estimate   =   -1264.06021425 Ry
     estimated scf accuracy    <       0.00022494 Ry

     iteration #  6     ecut=    29.00 Ry     beta= 0.10
     Davidson diagonalization with overlap
     ethr =  2.34E-07,  avg # of iterations =  2.0

     total cpu time spent up to now is       17.4 secs

     total energy              =   -1264.06008075 Ry
     Harris-Foulkes estimate   =   -1264.06008229 Ry
     estimated scf accuracy    <       0.00001396 Ry

     iteration #  7     ecut=    29.00 Ry     beta= 0.10
     Davidson diagonalization with overlap
     ethr =  1.45E-08,  avg # of iterations =  2.3

     total cpu time spent up to now is       19.2 secs

     total energy              =   -1264.06007133 Ry
     Harris-Foulkes estimate   =   -1264.06008163 Ry
     estimated scf accuracy    <       0.00000594 Ry

     iteration #  8     ecut=    29.00 Ry     beta= 0.10
     Davidson diagonalization with overlap
     ethr =  6.18E-09,  avg # of iterations =  2.2

     total cpu time spent up to now is       21.1 secs

     total energy              =   -1264.06007250 Ry
     Harris-Foulkes estimate   =   -1264.06007202 Ry
     estimated scf accuracy    <       0.00000112 Ry

     iteration #  9     ecut=    29.00 Ry     beta= 0.10
     Davidson diagonalization with overlap
     ethr =  1.16E-09,  avg # of iterations =  2.2

     total cpu time spent up to now is       22.9 secs

     End of self-consistent calculation

          k = 0.1667 0.1667 0.1667 (  9351 PWs)   bands (ev):

    -3.0432  -1.5440  -1.5416  -1.5385  -0.0592  -0.0584  -0.0562  -0.0550
    -0.0537  -0.0501   1.4114   1.4126   1.4148   1.4160   1.4171   1.4178
     1.4199   2.8658   2.8675   2.8689   2.8696   2.8715   2.8741   4.2335
     4.2342   4.2349   4.3308   4.3316   4.3324   5.6425   5.6428   5.6458
     5.6465   5.6479   5.6491   5.7592   7.0602   7.0606   7.0622   7.0639
     7.0649   7.0657   7.0737   7.0762   7.0794   7.4059   7.4067   7.4074
     8.4777   8.4783   8.4799   8.4813   8.4826   8.4831   8.8173   8.8184
     8.8197   8.8220

          k = 0.1667 0.1667-0.5000 (  9386 PWs)   bands (ev):

    -2.5420  -2.5396  -1.0460  -1.0452  -1.0437  -1.0421   0.4328   0.4346
     0.4363   0.4373   0.4389   0.4396   1.8951   1.8964   1.9011   1.9017
     1.9036   1.9043   3.3443   3.3453   3.3458   3.3460   3.3483   3.3503
     4.7057   4.7062   4.7082   4.7089   4.7726   4.7739   4.7739   4.7751
     4.8031   4.8043   6.1396   6.1403   6.1420   6.1437   6.2238   6.2244
     6.2251   6.2260   7.5402   7.5408   7.5425   7.5442   7.6415   7.6428
     7.8554   7.8561   7.8577   7.8588   8.9790   8.9792   8.9804   8.9812
     9.3384   9.3406

          k = 0.1667-0.5000-0.5000 (  9432 PWs)   bands (ev):

    -2.0425  -2.0415  -2.0391  -2.0377  -0.5511  -0.5501  -0.5476  -0.5463
     0.9245   0.9255   0.9279   0.9293   2.3770   2.3784   2.3791   2.3801
     2.3810   2.3831   2.3841   2.3848   3.8168   3.8183   3.8190   3.8200
     3.8208   3.8230   3.8240   3.8247   5.1721   5.1732   5.1758   5.1773
     5.2759   5.2772   5.2779   5.2788   5.2800   5.2819   5.2830   5.2837
     6.6685   6.6691   6.6704   6.6711   8.1001   8.1007   8.1019   8.1026
     8.4110   8.4119   8.4140   8.4152   9.3885   9.3901   9.3920   9.3928
     9.3944   9.3970

          k =-0.5000-0.5000-0.5000 (  9448 PWs)   bands (ev):

    -1.5462  -1.5453  -1.5427  -1.5421  -1.5409  -1.5390  -1.5386  -1.5359
     2.8564   2.8568   2.8580   2.8586   2.8599   2.8608   2.8610   2.8620
     2.8623   2.8629   2.8633   2.8638   2.8642   2.8646   2.8652   2.8653
     2.8662   2.8672   2.8677   2.8680   2.8688   2.8703   2.8718   2.8739
     7.1492   7.1502   7.1509   7.1515   7.1526   7.1532   7.1537   7.1540
     7.1541   7.1548   7.1560   7.1565   7.1572   7.1574   7.1577   7.1583
     7.1588   7.1595   7.1599   7.1601   7.1611   7.1618   7.1635   7.1637
    11.3543  11.3554

          k =-0.1667-0.1667 0.1667 (  9351 PWs)   bands (ev):

    -3.0432  -1.5435  -1.5416  -1.5391  -0.0589  -0.0576  -0.0563  -0.0549
    -0.0525  -0.0522   1.4109   1.4141   1.4145   1.4155   1.4168   1.4178
     1.4201   2.8667   2.8676   2.8684   2.8697   2.8712   2.8738   4.2338
     4.2342   4.2346   4.3311   4.3316   4.3321   5.6415   5.6446   5.6451
     5.6461   5.6478   5.6493   5.7592   7.0603   7.0617   7.0625   7.0635
     7.0643   7.0653   7.0742   7.0763   7.0788   7.4062   7.4067   7.4071
     8.4780   8.4792   8.4802   8.4809   8.4816   8.4831   8.8176   8.8186
     8.8198   8.8217

          k =-0.1667 0.1667-0.1667 (  9351 PWs)   bands (ev):

    -3.0432  -1.5440  -1.5414  -1.5387  -0.0594  -0.0580  -0.0558  -0.0546
    -0.0531  -0.0515   1.4119   1.4126   1.4142   1.4153   1.4173   1.4185
     1.4198   2.8670   2.8674   2.8681   2.8695   2.8716   2.8737   4.2334
     4.2342   4.2350   4.3308   4.3316   4.3324   5.6426   5.6432   5.6445
     5.6457   5.6484   5.6500   5.7592   7.0603   7.0612   7.0619   7.0637
     7.0648   7.0658   7.0738   7.0763   7.0790   7.4058   7.4067   7.4075
     8.4779   8.4787   8.4795   8.4815   8.4822   8.4832   8.8172   8.8181
     8.8193   8.8218

          k = 0.1667-0.1667-0.1667 (  9351 PWs)   bands (ev):

    -3.0432  -1.5436  -1.5420  -1.5385  -0.0594  -0.0576  -0.0562  -0.0556
    -0.0543  -0.0493   1.4121   1.4126   1.4136   1.4157   1.4167   1.4174
     1.4217   2.8660   2.8671   2.8682   2.8701   2.8710   2.8749   4.2333
     4.2342   4.2350   4.3307   4.3316   4.3325   5.6423   5.6434   5.6449
     5.6462   5.6476   5.6501   5.7592   7.0599   7.0614   7.0619   7.0636
     7.0642   7.0660   7.0745   7.0760   7.0794   7.4058   7.4067   7.4076
     8.4773   8.4791   8.4797   8.4815   8.4820   8.4833   8.8174   8.8180
     8.8190   8.8207

          k =-0.1667 0.1667 0.5000 (  9386 PWs)   bands (ev):

    -2.5420  -2.5396  -1.0466  -1.0446  -1.0441  -1.0417   0.4331   0.4341
     0.4359   0.4374   0.4389   0.4402   1.8949   1.8962   1.9009   1.9021
     1.9033   1.9047   3.3440   3.3451   3.3458   3.3470   3.3480   3.3500
     4.7053   4.7066   4.7079   4.7092   4.7723   4.7734   4.7742   4.7754
     4.8031   4.8044   6.1390   6.1411   6.1416   6.1441   6.2233   6.2245
     6.2252   6.2262   7.5400   7.5411   7.5426   7.5440   7.6415   7.6428
     7.8549   7.8566   7.8575   7.8591   8.9786   8.9796   8.9804   8.9812
     9.3396   9.3417

          k =-0.5000-0.1667 0.1667 (  9386 PWs)   bands (ev):

    -2.5422  -2.5395  -1.0472  -1.0444  -1.0436  -1.0418   0.4332   0.4351
     0.4359   0.4373   0.4383   0.4397   1.8951   1.8961   1.9012   1.9016
     1.9035   1.9048   3.3438   3.3450   3.3461   3.3472   3.3477   3.3500
     4.7057   4.7060   4.7080   4.7093   4.7720   4.7733   4.7744   4.7757
     4.8029   4.8043   6.1384   6.1412   6.1422   6.1440   6.2237   6.2244
     6.2247   6.2265   7.5395   7.5412   7.5430   7.5440   7.6414   7.6429
     7.8554   7.8559   7.8575   7.8592   8.9785   8.9796   8.9799   8.9818
     9.3380   9.3407

          k = 0.5000-0.1667-0.1667 (  9386 PWs)   bands (ev):

    -2.5422  -2.5395  -1.0475  -1.0443  -1.0436  -1.0415   0.4319   0.4348
     0.4357   0.4373   0.4383   0.4416   1.8951   1.8960   1.9006   1.9021
     1.9037   1.9046   3.3432   3.3445   3.3462   3.3472   3.3483   3.3506
     4.7053   4.7064   4.7081   4.7092   4.7714   4.7728   4.7750   4.7761
     4.8031   4.8045   6.1381   6.1413   6.1420   6.1443   6.2234   6.2246
     6.2252   6.2262   7.5397   7.5410   7.5422   7.5447   7.6414   7.6429
     7.8549   7.8564   7.8577   7.8591   8.9786   8.9795   8.9805   8.9812
     9.3395   9.3401

          k =-0.1667-0.5000 0.1667 (  9386 PWs)   bands (ev):

    -2.5411  -2.5405  -1.0464  -1.0459  -1.0432  -1.0415   0.4335   0.4342
     0.4361   0.4364   0.4387   0.4408   1.8953   1.8959   1.9022   1.9024
     1.9030   1.9034   3.3436   3.3439   3.3471   3.3475   3.3485   3.3493
     4.7069   4.7070   4.7075   4.7076   4.7719   4.7721   4.7754   4.7759
     4.8036   4.8039   6.1392   6.1397   6.1425   6.1442   6.2245   6.2246
     6.2250   6.2251   7.5403   7.5415   7.5427   7.5432   7.6420   7.6424
     7.8566   7.8567   7.8573   7.8574   8.9796   8.9797   8.9802   8.9803
     9.3398   9.3405

          k =-0.1667 0.5000-0.1667 (  9386 PWs)   bands (ev):

    -2.5411  -2.5405  -1.0467  -1.0461  -1.0426  -1.0416   0.4334   0.4344
     0.4365   0.4373   0.4382   0.4399   1.8952   1.8958   1.9023   1.9026
     1.9027   1.9036   3.3432   3.3436   3.3471   3.3476   3.3491   3.3494
     4.7069   4.7069   4.7070   4.7082   4.7715   4.7718   4.7759   4.7763
     4.8034   4.8038   6.1389   6.1395   6.1431   6.1442   6.2242   6.2246
     6.2247   6.2258   7.5406   7.5411   7.5426   7.5435   7.6420   7.6423
     7.8565   7.8567   7.8567   7.8581   8.9793   8.9795   8.9800   8.9809
     9.3398   9.3405

          k =-0.5000 0.1667 0.5000 (  9432 PWs)   bands (ev):

    -2.0439  -2.0413  -2.0390  -2.0367  -0.5525  -0.5498  -0.5475  -0.5452
     0.9230   0.9257   0.9281   0.9303   2.3766   2.3773   2.3788   2.3811
     2.3821   2.3825   2.3837   2.3857   3.8165   3.8171   3.8186   3.8210
     3.8220   3.8223   3.8236   3.8256   5.1706   5.1735   5.1760   5.1783
     5.2753   5.2762   5.2775   5.2799   5.2808   5.2815   5.2825   5.2846
     6.6679   6.6692   6.6705   6.6715   8.0994   8.1008   8.1019   8.1031
     8.4097   8.4122   8.4140   8.4162   9.3881   9.3890   9.3908   9.3936
     9.3949   9.3959

          k =-0.5000 0.5000 0.1667 (  9432 PWs)   bands (ev):

    -2.0423  -2.0412  -2.0387  -2.0386  -0.5509  -0.5498  -0.5473  -0.5471
     0.9247   0.9258   0.9283   0.9284   2.3772   2.3785   2.3791   2.3806
     2.3813   2.3829   2.3838   2.3844   3.8170   3.8184   3.8189   3.8205
     3.8211   3.8227   3.8237   3.8243   5.1724   5.1736   5.1762   5.1763
     5.2761   5.2773   5.2780   5.2793   5.2802   5.2818   5.2825   5.2832
     6.6687   6.6693   6.6705   6.6706   8.1001   8.1008   8.1021   8.1022
     8.4111   8.4121   8.4144   8.4145   9.3886   9.3905   9.3913   9.3932
     9.3945   9.3957

     the Fermi energy is     7.8172 ev

!    total energy              =   -1264.06007222 Ry
     Harris-Foulkes estimate   =   -1264.06007259 Ry
     estimated scf accuracy    <       0.00000028 Ry

     total all-electron energy =    -15540.629094 Ry

     The total energy is the sum of the following terms:

     one-electron contribution =     101.26921705 Ry
     hartree contribution      =       0.20236322 Ry
     xc contribution           =     -82.91857620 Ry
     ewald contribution        =    -172.93188273 Ry
     one-center paw contrib.   =   -1109.68386710 Ry
     smearing contrib. (-TS)   =       0.00267353 Ry

     convergence has been achieved in   9 iterations

     Forces acting on atoms (cartesian axes, Ry/au):

     atom    1 type  1   force =    -0.00000571    0.00000247    0.00001719
     atom    2 type  1   force =    -0.00009182    0.00022038    0.00008392
     atom    3 type  1   force =     0.00022354   -0.00002982   -0.00051656
     atom    4 type  1   force =    -0.00005465   -0.00016164   -0.00034737
     atom    5 type  1   force =    -0.00043878   -0.00039528    0.00032310
     atom    6 type  1   force =    -0.00014859    0.00043437    0.00000345
     atom    7 type  1   force =    -0.00015129   -0.00055115    0.00032814
     atom    8 type  1   force =     0.00001995   -0.00007628   -0.00025872
     atom    9 type  1   force =     0.00001058   -0.00007507    0.00011623
     atom   10 type  1   force =    -0.00016874   -0.00009342   -0.00068613
     atom   11 type  1   force =    -0.00024379   -0.00025735   -0.00039637
     atom   12 type  1   force =    -0.00008753    0.00002807   -0.00006947
     atom   13 type  1   force =    -0.00019435   -0.00033088   -0.00002547
     atom   14 type  1   force =    -0.00002876    0.00014763    0.00042541
     atom   15 type  1   force =    -0.00050989    0.00032523    0.00051738
     atom   16 type  1   force =     0.00062552    0.00049169    0.00013814
     atom   17 type  1   force =    -0.00044038    0.00002389    0.00009943
     atom   18 type  1   force =     0.00020701   -0.00004326    0.00042458
     atom   19 type  1   force =     0.00052358    0.00023353   -0.00009060
     atom   20 type  1   force =     0.00007032    0.00021398    0.00006399
     atom   21 type  1   force =     0.00019390   -0.00054392    0.00011616
     atom   22 type  1   force =    -0.00014384    0.00059405    0.00012969
     atom   23 type  1   force =     0.00011908   -0.00010699   -0.00022210
     atom   24 type  1   force =     0.00013155    0.00013757   -0.00008933
     atom   25 type  1   force =     0.00010386   -0.00016577    0.00033672
     atom   26 type  1   force =     0.00031266   -0.00023003   -0.00024583
     atom   27 type  1   force =    -0.00015879    0.00001736    0.00011293
     atom   28 type  1   force =    -0.00008902    0.00024056   -0.00006424
     atom   29 type  1   force =     0.00083398   -0.00033649   -0.00009373
     atom   30 type  1   force =    -0.00025880    0.00003888    0.00025296
     atom   31 type  1   force =    -0.00008532   -0.00004427   -0.00035052
     atom   32 type  1   force =    -0.00007550    0.00029197   -0.00003298

     Total force =     0.002736     Total SCF correction =     0.000468
     SCF correction compared to forces is large: reduce conv_thr to get better values


     Computing stress (Cartesian axis) and pressure

          total   stress  (Ry/bohr**3)                   (kbar)     P=   -1.49
  -0.00001015   0.00000000  -0.00000000         -1.49      0.00     -0.00
   0.00000000  -0.00001015   0.00000000          0.00     -1.49      0.00
  -0.00000000   0.00000000  -0.00001015         -0.00      0.00     -1.49


     Writing output data file fe_scf_fcc_2.save/
 
     init_run     :      1.44s CPU      1.54s WALL (       1 calls)
     electrons    :     20.07s CPU     20.56s WALL (       1 calls)
     forces       :      0.30s CPU      0.32s WALL (       1 calls)
     stress       :      1.08s CPU      1.08s WALL (       1 calls)

     Called by init_run:
     wfcinit      :      1.21s CPU      1.26s WALL (       1 calls)
     potinit      :      0.11s CPU      0.12s WALL (       1 calls)
     hinit0       :      0.10s CPU      0.15s WALL (       1 calls)

     Called by electrons:
     c_bands      :     16.79s CPU     17.20s WALL (      10 calls)
     sum_band     :      2.27s CPU      2.33s WALL (      10 calls)
     v_of_rho     :      0.07s CPU      0.08s WALL (      10 calls)
     newd         :      0.05s CPU      0.06s WALL (      10 calls)
     PAW_pot      :      0.97s CPU      0.98s WALL (      10 calls)
     mix_rho      :      0.02s CPU      0.02s WALL (      10 calls)

     Called by c_bands:
     init_us_2    :      0.41s CPU      0.42s WALL (     322 calls)
     cegterg      :     15.75s CPU     16.15s WALL (     140 calls)

     Called by sum_band:
     sum_band:bec :      0.02s CPU      0.02s WALL (     140 calls)
     addusdens    :      0.05s CPU      0.05s WALL (      10 calls)

     Called by *egterg:
     h_psi        :     10.82s CPU     11.16s WALL (     478 calls)
     s_psi        :      1.00s CPU      1.01s WALL (     478 calls)
     g_psi        :      0.04s CPU      0.04s WALL (     324 calls)
     cdiaghg      :      2.92s CPU      2.93s WALL (     450 calls)

     Called by h_psi:
     h_psi:pot    :     10.75s CPU     11.10s WALL (     478 calls)
     h_psi:calbec :      1.06s CPU      1.13s WALL (     478 calls)
     vloc_psi     :      8.66s CPU      8.92s WALL (     478 calls)
     add_vuspsi   :      1.03s CPU      1.04s WALL (     478 calls)

     General routines
     calbec       :      1.63s CPU      1.73s WALL (     688 calls)
     fft          :      0.14s CPU      0.19s WALL (     137 calls)
     ffts         :      0.00s CPU      0.01s WALL (      10 calls)
     fftw         :      9.49s CPU      9.77s WALL (   53112 calls)
 
     Parallel routines
     fft_scatt_xy :      0.89s CPU      0.91s WALL (   53259 calls)
     fft_scatt_yz :      5.00s CPU      5.19s WALL (   53259 calls)
 
     PWSCF        :    23.82s CPU        24.64s WALL

 
   This run was terminated on:   1: 3:11  12Mar2020            

=------------------------------------------------------------------------------=
   JOB DONE.
=------------------------------------------------------------------------------=
