
     Program PWSCF v.6.3 starts on 12Mar2020 at  1: 3:11 

     This program is part of the open-source Quantum ESPRESSO suite
     for quantum simulation of materials; please cite
         "P. Giannozzi et al., J. Phys.:Condens. Matter 21 395502 (2009);
         "P. Giannozzi et al., J. Phys.:Condens. Matter 29 465901 (2017);
          URL http://www.quantum-espresso.org", 
     in publications or presentations arising from this work. More details at
     http://www.quantum-espresso.org/quote

     Parallel version (MPI & OpenMP), running on      20 processor cores
     Number of MPI processes:                20
     Threads/MPI process:                     1

     MPI processes distributed on     1 nodes
     R & G space division:  proc/nbgrp/npool/nimage =      20
     Reading input from wd/ecut/file_000051.in
Warning: card &IONS ignored
Warning: card ION_DYNAMICS = 'BFGS', ignored
Warning: card / ignored
Warning: card &CELL ignored
Warning: card CELL_DYNAMICS = 'BFGS', ignored
Warning: card CELL_FACTOR = 2.0, ignored
Warning: card PRESS = 0.0, ignored
Warning: card / ignored

     Current dimensions of program PWSCF are:
     Max number of different atomic species (ntypx) = 10
     Max number of k-points (npk) =  40000
     Max angular momentum in pseudopotentials (lmaxx) =  3
     Message from routine read_upf::
     Pseudo file /rds/homes/b/bxp912/pp/Al.pbe-nl-kjpaw_psl.1.0.0.UPF has been successfully fixed on the fly.
To avoid this message in the future you can permanently fix 
 your pseudo files following instructions given in: 
https://gitlab.com/QEF/q-e/blob/master/upftools/how_to_fix_upf.md
               file Al.pbe-nl-kjpaw_psl.1.0.0.UPF: wavefunction(s)  3S 3P renormalized

     Subspace diagonalization in iterative solution of the eigenvalue problem:
     a serial algorithm will be used

 
     Parallelization info
     --------------------
     sticks:   dense  smooth     PW     G-vecs:    dense   smooth      PW
     Min          97      97     29                 3229     3229     539
     Max          98      98     30                 3232     3232     542
     Sum        1941    1941    593                64589    64589   10827
 


     bravais-lattice index     =            0
     lattice parameter (alat)  =      15.2712  a.u.
     unit-cell volume          =    3561.3897 (a.u.)^3
     number of atoms/cell      =           32
     number of atomic types    =            1
     number of electrons       =        96.00
     number of Kohn-Sham states=           58
     kinetic-energy cutoff     =      28.0000  Ry
     charge density cutoff     =     105.0000  Ry
     convergence threshold     =      1.0E-06
     mixing beta               =       0.1000
     number of iterations used =           10  TF        mixing
     Exchange-correlation      = SLA PW PBX PBC ( 1  4  3  4 0 0)

     celldm(1)=  15.271200  celldm(2)=   0.000000  celldm(3)=   0.000000
     celldm(4)=   0.000000  celldm(5)=   0.000000  celldm(6)=   0.000000

     crystal axes: (cart. coord. in units of alat)
               a(1) = (   1.000000   0.000000   0.000000 )  
               a(2) = (   0.000000   1.000000   0.000000 )  
               a(3) = (   0.000000   0.000000   1.000000 )  

     reciprocal axes: (cart. coord. in units 2 pi/alat)
               b(1) = (  1.000000  0.000000  0.000000 )  
               b(2) = (  0.000000  1.000000  0.000000 )  
               b(3) = (  0.000000  0.000000  1.000000 )  


     PseudoPot. # 1 for Al read from file:
     /rds/homes/b/bxp912/pp/Al.pbe-nl-kjpaw_psl.1.0.0.UPF
     MD5 check sum: 339dbea23cf3ab9a065ad45c0f9085d7
     Pseudo is Projector augmented-wave + core cor, Zval =  3.0
     Generated using "atomic" code by A. Dal Corso v.5.1
     Shape of augmentation charge: PSQ
     Using radial grid of 1135 points,  4 beta functions with: 
                l(1) =   0
                l(2) =   0
                l(3) =   1
                l(4) =   1
     Q(r) pseudized with 0 coefficients 


     atomic species   valence    mass     pseudopotential
        Al             3.00    26.98200     Al( 1.00)

     No symmetry found



   Cartesian axes

     site n.     atom                  positions (alat units)
         1           Al  tau(   1) = (  -0.0000327   0.0000095   0.0000680  )
         2           Al  tau(   2) = (   0.2500796   0.2498100   0.0000703  )
         3           Al  tau(   3) = (   0.2499071   0.0000305   0.2502955  )
         4           Al  tau(   4) = (  -0.0000200   0.2502187   0.2501837  )
         5           Al  tau(   5) = (   0.0002558   0.0002521   0.4998810  )
         6           Al  tau(   6) = (   0.2501194   0.2498326   0.5000036  )
         7           Al  tau(   7) = (   0.2500278   0.0001539   0.7498880  )
         8           Al  tau(   8) = (   0.0000549   0.2501136   0.7502101  )
         9           Al  tau(   9) = (   0.0002375   0.5001078  -0.0000154  )
        10           Al  tau(  10) = (   0.2501396   0.7501762   0.0004054  )
        11           Al  tau(  11) = (   0.2501891   0.5001088   0.2502510  )
        12           Al  tau(  12) = (   0.0000383   0.7500455   0.2500253  )
        13           Al  tau(  13) = (   0.0001102   0.5001562   0.5000990  )
        14           Al  tau(  14) = (   0.2499640   0.7500632   0.4998706  )
        15           Al  tau(  15) = (   0.2503366   0.4997894   0.7496960  )
        16           Al  tau(  16) = (  -0.0003280   0.7497055   0.7499931  )
        17           Al  tau(  17) = (   0.5002037  -0.0001004  -0.0000387  )
        18           Al  tau(  18) = (   0.7499123   0.2500941  -0.0002332  )
        19           Al  tau(  19) = (   0.7496354  -0.0000959   0.2500771  )
        20           Al  tau(  20) = (   0.4999751   0.2499614   0.2498317  )
        21           Al  tau(  21) = (   0.4999211   0.0002929   0.4999726  )
        22           Al  tau(  22) = (   0.7500684   0.2496958   0.4999523  )
        23           Al  tau(  23) = (   0.7500357  -0.0000687   0.7500257  )
        24           Al  tau(  24) = (   0.5000114   0.2498864   0.7499948  )
        25           Al  tau(  25) = (   0.4998526   0.5001156  -0.0002192  )
        26           Al  tau(  26) = (   0.7497723   0.7500978   0.0002736  )
        27           Al  tau(  27) = (   0.7501007   0.4998018   0.2499462  )
        28           Al  tau(  28) = (   0.5000878   0.7497908   0.2502093  )
        29           Al  tau(  29) = (   0.4996761   0.5001027   0.5000404  )
        30           Al  tau(  30) = (   0.7501658   0.7499872   0.4998547  )
        31           Al  tau(  31) = (   0.7499472   0.5000095   0.7501393  )
        32           Al  tau(  32) = (   0.5000142   0.7499486   0.7499177  )

     number of k points=    14  Marzari-Vanderbilt smearing, width (Ry)=  0.0200
                       cart. coord. in units 2pi/alat
        k(    1) = (   0.1666667   0.1666667   0.1666667), wk =   0.1481481
        k(    2) = (   0.1666667   0.1666667  -0.5000000), wk =   0.1481481
        k(    3) = (   0.1666667  -0.5000000  -0.5000000), wk =   0.1481481
        k(    4) = (  -0.5000000  -0.5000000  -0.5000000), wk =   0.0740741
        k(    5) = (  -0.1666667  -0.1666667   0.1666667), wk =   0.1481481
        k(    6) = (  -0.1666667   0.1666667  -0.1666667), wk =   0.1481481
        k(    7) = (   0.1666667  -0.1666667  -0.1666667), wk =   0.1481481
        k(    8) = (  -0.1666667   0.1666667   0.5000000), wk =   0.1481481
        k(    9) = (  -0.5000000  -0.1666667   0.1666667), wk =   0.1481481
        k(   10) = (   0.5000000  -0.1666667  -0.1666667), wk =   0.1481481
        k(   11) = (  -0.1666667  -0.5000000   0.1666667), wk =   0.1481481
        k(   12) = (  -0.1666667   0.5000000  -0.1666667), wk =   0.1481481
        k(   13) = (  -0.5000000   0.1666667   0.5000000), wk =   0.1481481
        k(   14) = (  -0.5000000   0.5000000   0.1666667), wk =   0.1481481

     Dense  grid:    64589 G-vectors     FFT dimensions: (  50,  50,  50)

     Estimated max dynamical RAM per process >      17.69 MB

     Estimated total dynamical RAM >     353.77 MB

     Initial potential from superposition of free atoms

     starting charge   95.92671, renormalised to   96.00000
     Starting wfcs are  128 randomized atomic wfcs
     Checking if some PAW data can be deallocated... 

     total cpu time spent up to now is        2.3 secs

     Self-consistent Calculation

     iteration #  1     ecut=    28.00 Ry     beta= 0.10
     Davidson diagonalization with overlap
     ethr =  1.00E-02,  avg # of iterations =  3.0

     Threshold (ethr) on eigenvalues was too large:
     Diagonalizing with lowered threshold

     Davidson diagonalization with overlap
     ethr =  1.93E-04,  avg # of iterations =  3.6

     total cpu time spent up to now is        7.1 secs

     total energy              =   -1264.10283261 Ry
     Harris-Foulkes estimate   =   -1264.10899626 Ry
     estimated scf accuracy    <       0.18069447 Ry

     iteration #  2     ecut=    28.00 Ry     beta= 0.10
     Davidson diagonalization with overlap
     ethr =  1.88E-04,  avg # of iterations =  1.0

     total cpu time spent up to now is        8.7 secs

     total energy              =   -1264.05585503 Ry
     Harris-Foulkes estimate   =   -1264.10361469 Ry
     estimated scf accuracy    <       0.15686843 Ry

     iteration #  3     ecut=    28.00 Ry     beta= 0.10
     Davidson diagonalization with overlap
     ethr =  1.63E-04,  avg # of iterations =  1.0

     total cpu time spent up to now is       10.2 secs

     total energy              =   -1264.05874095 Ry
     Harris-Foulkes estimate   =   -1264.05886890 Ry
     estimated scf accuracy    <       0.00061476 Ry

     iteration #  4     ecut=    28.00 Ry     beta= 0.10
     Davidson diagonalization with overlap
     ethr =  6.40E-07,  avg # of iterations =  4.9

     total cpu time spent up to now is       13.4 secs

     total energy              =   -1264.05934793 Ry
     Harris-Foulkes estimate   =   -1264.05951265 Ry
     estimated scf accuracy    <       0.00035268 Ry

     iteration #  5     ecut=    28.00 Ry     beta= 0.10
     Davidson diagonalization with overlap
     ethr =  3.67E-07,  avg # of iterations =  1.1

     total cpu time spent up to now is       15.0 secs

     total energy              =   -1264.05915566 Ry
     Harris-Foulkes estimate   =   -1264.05935806 Ry
     estimated scf accuracy    <       0.00023003 Ry

     iteration #  6     ecut=    28.00 Ry     beta= 0.10
     Davidson diagonalization with overlap
     ethr =  2.40E-07,  avg # of iterations =  2.0

     total cpu time spent up to now is       17.1 secs

     total energy              =   -1264.05921927 Ry
     Harris-Foulkes estimate   =   -1264.05921984 Ry
     estimated scf accuracy    <       0.00001387 Ry

     iteration #  7     ecut=    28.00 Ry     beta= 0.10
     Davidson diagonalization with overlap
     ethr =  1.44E-08,  avg # of iterations =  2.1

     total cpu time spent up to now is       18.8 secs

     total energy              =   -1264.05921050 Ry
     Harris-Foulkes estimate   =   -1264.05922016 Ry
     estimated scf accuracy    <       0.00000576 Ry

     iteration #  8     ecut=    28.00 Ry     beta= 0.10
     Davidson diagonalization with overlap
     ethr =  6.00E-09,  avg # of iterations =  2.4

     total cpu time spent up to now is       20.8 secs

     End of self-consistent calculation

          k = 0.1667 0.1667 0.1667 (  8868 PWs)   bands (ev):

    -3.0431  -1.5440  -1.5415  -1.5385  -0.0590  -0.0582  -0.0560  -0.0549
    -0.0535  -0.0499   1.4116   1.4128   1.4149   1.4161   1.4172   1.4179
     1.4200   2.8659   2.8676   2.8690   2.8697   2.8716   2.8742   4.2336
     4.2343   4.2350   4.3310   4.3317   4.3325   5.6426   5.6429   5.6459
     5.6466   5.6479   5.6492   5.7594   7.0604   7.0607   7.0624   7.0641
     7.0651   7.0658   7.0738   7.0763   7.0795   7.4063   7.4071   7.4078
     8.4780   8.4786   8.4802   8.4816   8.4829   8.4834   8.8177   8.8192
     8.8203   8.8226

          k = 0.1667 0.1667-0.5000 (  8920 PWs)   bands (ev):

    -2.5420  -2.5396  -1.0459  -1.0452  -1.0436  -1.0420   0.4330   0.4348
     0.4364   0.4375   0.4391   0.4397   1.8953   1.8965   1.9012   1.9019
     1.9037   1.9045   3.3445   3.3455   3.3459   3.3462   3.3485   3.3504
     4.7058   4.7063   4.7082   4.7090   4.7727   4.7739   4.7740   4.7752
     4.8033   4.8045   6.1398   6.1405   6.1421   6.1438   6.2240   6.2246
     6.2253   6.2262   7.5404   7.5410   7.5427   7.5444   7.6417   7.6430
     7.8556   7.8562   7.8579   7.8589   8.9791   8.9794   8.9806   8.9813
     9.3392   9.3402

          k = 0.1667-0.5000-0.5000 (  8904 PWs)   bands (ev):

    -2.0425  -2.0415  -2.0391  -2.0377  -0.5509  -0.5499  -0.5475  -0.5462
     0.9246   0.9256   0.9281   0.9294   2.3772   2.3786   2.3793   2.3802
     2.3811   2.3832   2.3842   2.3849   3.8171   3.8185   3.8192   3.8202
     3.8210   3.8232   3.8242   3.8248   5.1724   5.1734   5.1760   5.1774
     5.2761   5.2774   5.2780   5.2790   5.2801   5.2821   5.2832   5.2838
     6.6687   6.6693   6.6705   6.6713   8.1003   8.1009   8.1021   8.1029
     8.4111   8.4120   8.4141   8.4153   9.3892   9.3908   9.3916   9.3937
     9.3954   9.3970

          k =-0.5000-0.5000-0.5000 (  9008 PWs)   bands (ev):

    -1.5460  -1.5453  -1.5427  -1.5421  -1.5409  -1.5390  -1.5386  -1.5360
     2.8565   2.8569   2.8582   2.8588   2.8600   2.8609   2.8611   2.8621
     2.8624   2.8630   2.8633   2.8639   2.8643   2.8646   2.8653   2.8654
     2.8663   2.8672   2.8678   2.8680   2.8688   2.8704   2.8718   2.8739
     7.1494   7.1505   7.1511   7.1517   7.1529   7.1535   7.1539   7.1542
     7.1543   7.1550   7.1562   7.1567   7.1574   7.1576   7.1579   7.1585
     7.1590   7.1597   7.1601   7.1603   7.1613   7.1620   7.1637   7.1639
    11.3559  11.5707

          k =-0.1667-0.1667 0.1667 (  8868 PWs)   bands (ev):

    -3.0431  -1.5434  -1.5415  -1.5390  -0.0588  -0.0574  -0.0561  -0.0547
    -0.0523  -0.0521   1.4111   1.4142   1.4147   1.4156   1.4169   1.4179
     1.4202   2.8668   2.8677   2.8684   2.8698   2.8713   2.8739   4.2339
     4.2343   4.2347   4.3313   4.3317   4.3322   5.6417   5.6447   5.6452
     5.6462   5.6479   5.6494   5.7594   7.0604   7.0619   7.0627   7.0637
     7.0645   7.0655   7.0743   7.0764   7.0789   7.4066   7.4071   7.4075
     8.4783   8.4795   8.4805   8.4812   8.4819   8.4833   8.8179   8.8193
     8.8206   8.8212

          k =-0.1667 0.1667-0.1667 (  8868 PWs)   bands (ev):

    -3.0431  -1.5439  -1.5413  -1.5387  -0.0592  -0.0578  -0.0556  -0.0545
    -0.0530  -0.0514   1.4121   1.4128   1.4143   1.4154   1.4174   1.4186
     1.4199   2.8671   2.8675   2.8683   2.8696   2.8718   2.8738   4.2335
     4.2343   4.2351   4.3309   4.3317   4.3326   5.6428   5.6434   5.6446
     5.6458   5.6485   5.6501   5.7594   7.0605   7.0614   7.0621   7.0639
     7.0650   7.0659   7.0739   7.0764   7.0791   7.4062   7.4071   7.4079
     8.4782   8.4790   8.4798   8.4818   8.4825   8.4835   8.8175   8.8191
     8.8207   8.8219

          k = 0.1667-0.1667-0.1667 (  8868 PWs)   bands (ev):

    -3.0431  -1.5436  -1.5420  -1.5385  -0.0592  -0.0575  -0.0560  -0.0554
    -0.0541  -0.0492   1.4122   1.4128   1.4138   1.4158   1.4168   1.4175
     1.4218   2.8661   2.8671   2.8683   2.8702   2.8712   2.8750   4.2335
     4.2343   4.2351   4.3308   4.3317   4.3327   5.6425   5.6436   5.6450
     5.6463   5.6477   5.6502   5.7594   7.0601   7.0615   7.0621   7.0638
     7.0643   7.0661   7.0746   7.0761   7.0795   7.4062   7.4071   7.4080
     8.4776   8.4794   8.4800   8.4818   8.4823   8.4836   8.8177   8.8182
     8.8206   8.8215

          k =-0.1667 0.1667 0.5000 (  8920 PWs)   bands (ev):

    -2.5420  -2.5396  -1.0465  -1.0445  -1.0440  -1.0417   0.4333   0.4342
     0.4360   0.4376   0.4390   0.4404   1.8950   1.8963   1.9011   1.9023
     1.9035   1.9048   3.3441   3.3453   3.3460   3.3472   3.3482   3.3502
     4.7054   4.7068   4.7080   4.7093   4.7724   4.7735   4.7743   4.7755
     4.8033   4.8045   6.1392   6.1413   6.1417   6.1442   6.2236   6.2247
     6.2254   6.2264   7.5402   7.5413   7.5428   7.5442   7.6417   7.6430
     7.8551   7.8567   7.8576   7.8592   8.9788   8.9797   8.9806   8.9814
     9.3388   9.3405

          k =-0.5000-0.1667 0.1667 (  8920 PWs)   bands (ev):

    -2.5421  -2.5395  -1.0471  -1.0443  -1.0435  -1.0418   0.4334   0.4353
     0.4361   0.4375   0.4384   0.4398   1.8952   1.8962   1.9013   1.9018
     1.9036   1.9049   3.3440   3.3452   3.3463   3.3474   3.3479   3.3501
     4.7059   4.7061   4.7081   4.7094   4.7722   4.7734   4.7745   4.7757
     4.8031   4.8045   6.1386   6.1414   6.1423   6.1441   6.2239   6.2246
     6.2249   6.2267   7.5398   7.5415   7.5432   7.5442   7.6417   7.6431
     7.8556   7.8561   7.8576   7.8594   8.9786   8.9798   8.9801   8.9820
     9.3382   9.3400

          k = 0.5000-0.1667-0.1667 (  8920 PWs)   bands (ev):

    -2.5421  -2.5395  -1.0474  -1.0443  -1.0436  -1.0414   0.4321   0.4349
     0.4359   0.4375   0.4385   0.4417   1.8953   1.8961   1.9008   1.9023
     1.9039   1.9047   3.3434   3.3447   3.3463   3.3474   3.3485   3.3507
     4.7054   4.7066   4.7082   4.7093   4.7715   4.7729   4.7751   4.7762
     4.8033   4.8047   6.1383   6.1415   6.1422   6.1444   6.2236   6.2248
     6.2254   6.2264   7.5400   7.5413   7.5424   7.5449   7.6417   7.6431
     7.8550   7.8566   7.8578   7.8592   8.9788   8.9797   8.9807   8.9814
     9.3382   9.3397

          k =-0.1667-0.5000 0.1667 (  8920 PWs)   bands (ev):

    -2.5410  -2.5405  -1.0463  -1.0458  -1.0431  -1.0415   0.4336   0.4343
     0.4363   0.4366   0.4388   0.4409   1.8954   1.8960   1.9024   1.9026
     1.9031   1.9035   3.3438   3.3441   3.3472   3.3477   3.3487   3.3495
     4.7070   4.7071   4.7076   4.7077   4.7720   4.7722   4.7755   4.7760
     4.8038   4.8041   6.1394   6.1399   6.1427   6.1443   6.2247   6.2248
     6.2252   6.2253   7.5405   7.5417   7.5429   7.5434   7.6422   7.6426
     7.8568   7.8569   7.8574   7.8575   8.9798   8.9799   8.9804   8.9804
     9.3401   9.3408

          k =-0.1667 0.5000-0.1667 (  8920 PWs)   bands (ev):

    -2.5410  -2.5405  -1.0466  -1.0460  -1.0425  -1.0416   0.4336   0.4345
     0.4366   0.4375   0.4383   0.4400   1.8953   1.8959   1.9025   1.9027
     1.9029   1.9037   3.3434   3.3438   3.3472   3.3477   3.3492   3.3496
     4.7070   4.7071   4.7071   4.7082   4.7716   4.7720   4.7760   4.7763
     4.8037   4.8040   6.1391   6.1397   6.1433   6.1443   6.2244   6.2248
     6.2249   6.2260   7.5408   7.5413   7.5428   7.5437   7.6422   7.6425
     7.8566   7.8569   7.8569   7.8582   8.9795   8.9797   8.9802   8.9811
     9.3394   9.3412

          k =-0.5000 0.1667 0.5000 (  8904 PWs)   bands (ev):

    -2.0438  -2.0412  -2.0389  -2.0367  -0.5523  -0.5497  -0.5474  -0.5452
     0.9232   0.9259   0.9282   0.9304   2.3768   2.3775   2.3789   2.3812
     2.3822   2.3826   2.3838   2.3858   3.8167   3.8173   3.8188   3.8211
     3.8222   3.8225   3.8237   3.8257   5.1709   5.1737   5.1762   5.1785
     5.2755   5.2764   5.2777   5.2801   5.2810   5.2816   5.2827   5.2847
     6.6681   6.6694   6.6707   6.6717   8.0996   8.1011   8.1021   8.1033
     8.4098   8.4123   8.4141   8.4163   9.3890   9.3899   9.3926   9.3945
     9.3961   9.3965

          k =-0.5000 0.5000 0.1667 (  8904 PWs)   bands (ev):

    -2.0422  -2.0412  -2.0387  -2.0386  -0.5507  -0.5496  -0.5472  -0.5470
     0.9248   0.9259   0.9284   0.9286   2.3773   2.3787   2.3792   2.3807
     2.3814   2.3830   2.3839   2.3845   3.8172   3.8186   3.8191   3.8207
     3.8213   3.8229   3.8239   3.8244   5.1726   5.1738   5.1763   5.1765
     5.2762   5.2775   5.2782   5.2795   5.2803   5.2820   5.2826   5.2834
     6.6689   6.6695   6.6707   6.6708   8.1004   8.1010   8.1023   8.1024
     8.4112   8.4122   8.4145   8.4146   9.3893   9.3911   9.3924   9.3937
     9.3960   9.3967

     the Fermi energy is     7.8174 ev

!    total energy              =   -1264.05921135 Ry
     Harris-Foulkes estimate   =   -1264.05921122 Ry
     estimated scf accuracy    <       0.00000098 Ry

     total all-electron energy =    -15540.628233 Ry

     The total energy is the sum of the following terms:

     one-electron contribution =     101.27109009 Ry
     hartree contribution      =       0.20235037 Ry
     xc contribution           =     -82.91872151 Ry
     ewald contribution        =    -172.93188273 Ry
     one-center paw contrib.   =   -1109.68471911 Ry
     smearing contrib. (-TS)   =       0.00267154 Ry

     convergence has been achieved in   8 iterations

     Forces acting on atoms (cartesian axes, Ry/au):

     atom    1 type  1   force =     0.00000208   -0.00001205    0.00000551
     atom    2 type  1   force =    -0.00010780    0.00021593    0.00007260
     atom    3 type  1   force =     0.00022496   -0.00001005   -0.00053117
     atom    4 type  1   force =    -0.00004384   -0.00016938   -0.00033249
     atom    5 type  1   force =    -0.00044565   -0.00038952    0.00033576
     atom    6 type  1   force =    -0.00015893    0.00042785   -0.00000168
     atom    7 type  1   force =    -0.00016419   -0.00053808    0.00034849
     atom    8 type  1   force =     0.00004551   -0.00007557   -0.00026018
     atom    9 type  1   force =     0.00000467   -0.00006241    0.00011910
     atom   10 type  1   force =    -0.00019335   -0.00009146   -0.00066845
     atom   11 type  1   force =    -0.00023508   -0.00026239   -0.00039217
     atom   12 type  1   force =    -0.00010554    0.00003587   -0.00006533
     atom   13 type  1   force =    -0.00017390   -0.00034248   -0.00003149
     atom   14 type  1   force =    -0.00002376    0.00015146    0.00043937
     atom   15 type  1   force =    -0.00052831    0.00032979    0.00050522
     atom   16 type  1   force =     0.00063125    0.00051268    0.00012658
     atom   17 type  1   force =    -0.00042080    0.00004558    0.00008921
     atom   18 type  1   force =     0.00019830   -0.00006655    0.00044073
     atom   19 type  1   force =     0.00051787    0.00023006   -0.00008186
     atom   20 type  1   force =     0.00009142    0.00021258    0.00005988
     atom   21 type  1   force =     0.00021404   -0.00056348    0.00011624
     atom   22 type  1   force =    -0.00011952    0.00059469    0.00013862
     atom   23 type  1   force =     0.00013311   -0.00009587   -0.00020329
     atom   24 type  1   force =     0.00012147    0.00013640   -0.00008487
     atom   25 type  1   force =     0.00008759   -0.00019029    0.00032953
     atom   26 type  1   force =     0.00030743   -0.00020925   -0.00025586
     atom   27 type  1   force =    -0.00016852    0.00002454    0.00012673
     atom   28 type  1   force =    -0.00009428    0.00024204   -0.00007145
     atom   29 type  1   force =     0.00083591   -0.00035239   -0.00011106
     atom   30 type  1   force =    -0.00026000    0.00004875    0.00023821
     atom   31 type  1   force =    -0.00008059   -0.00006642   -0.00037325
     atom   32 type  1   force =    -0.00009154    0.00028939   -0.00002719

     Total force =     0.002752     Total SCF correction =     0.000515
     SCF correction compared to forces is large: reduce conv_thr to get better values


     Computing stress (Cartesian axis) and pressure

          total   stress  (Ry/bohr**3)                   (kbar)     P=   -1.52
  -0.00001033  -0.00000000   0.00000000         -1.52     -0.00      0.00
  -0.00000000  -0.00001033  -0.00000000         -0.00     -1.52     -0.00
   0.00000000  -0.00000000  -0.00001033          0.00     -0.00     -1.52


     Writing output data file fe_scf_fcc_2.save/
 
     init_run     :      1.42s CPU      1.52s WALL (       1 calls)
     electrons    :     18.07s CPU     18.50s WALL (       1 calls)
     forces       :      0.29s CPU      0.31s WALL (       1 calls)
     stress       :      0.97s CPU      0.98s WALL (       1 calls)

     Called by init_run:
     wfcinit      :      1.16s CPU      1.20s WALL (       1 calls)
     potinit      :      0.11s CPU      0.11s WALL (       1 calls)
     hinit0       :      0.14s CPU      0.18s WALL (       1 calls)

     Called by electrons:
     c_bands      :     15.16s CPU     15.52s WALL (       9 calls)
     sum_band     :      2.00s CPU      2.06s WALL (       9 calls)
     v_of_rho     :      0.06s CPU      0.07s WALL (       9 calls)
     newd         :      0.05s CPU      0.05s WALL (       9 calls)
     PAW_pot      :      0.87s CPU      0.88s WALL (       9 calls)
     mix_rho      :      0.02s CPU      0.02s WALL (       9 calls)

     Called by c_bands:
     init_us_2    :      0.29s CPU      0.29s WALL (     294 calls)
     cegterg      :     14.29s CPU     14.64s WALL (     126 calls)

     Called by sum_band:
     sum_band:bec :      0.02s CPU      0.02s WALL (     126 calls)
     addusdens    :      0.03s CPU      0.04s WALL (       9 calls)

     Called by *egterg:
     h_psi        :      9.69s CPU     10.00s WALL (     435 calls)
     s_psi        :      0.71s CPU      0.72s WALL (     435 calls)
     g_psi        :      0.03s CPU      0.03s WALL (     295 calls)
     cdiaghg      :      2.83s CPU      2.84s WALL (     407 calls)

     Called by h_psi:
     h_psi:pot    :      9.66s CPU      9.96s WALL (     435 calls)
     h_psi:calbec :      0.92s CPU      0.98s WALL (     435 calls)
     vloc_psi     :      8.00s CPU      8.24s WALL (     435 calls)
     add_vuspsi   :      0.73s CPU      0.74s WALL (     435 calls)

     General routines
     calbec       :      1.64s CPU      1.72s WALL (     631 calls)
     fft          :      0.19s CPU      0.24s WALL (     126 calls)
     ffts         :      0.00s CPU      0.01s WALL (       9 calls)
     fftw         :      8.84s CPU      9.10s WALL (   48932 calls)
 
     Parallel routines
     fft_scatt_xy :      0.77s CPU      0.80s WALL (   49067 calls)
     fft_scatt_yz :      4.96s CPU      5.12s WALL (   49067 calls)
 
     PWSCF        :    21.67s CPU        22.46s WALL

 
   This run was terminated on:   1: 3:34  12Mar2020            

=------------------------------------------------------------------------------=
   JOB DONE.
=------------------------------------------------------------------------------=
