
     Program PWSCF v.6.4.1 starts on  9Mar2020 at  6:56:55 

     This program is part of the open-source Quantum ESPRESSO suite
     for quantum simulation of materials; please cite
         "P. Giannozzi et al., J. Phys.:Condens. Matter 21 395502 (2009);
         "P. Giannozzi et al., J. Phys.:Condens. Matter 29 465901 (2017);
          URL http://www.quantum-espresso.org", 
     in publications or presentations arising from this work. More details at
     http://www.quantum-espresso.org/quote

     Parallel version (MPI), running on     4 processors

     MPI processes distributed on     1 nodes
     R & G space division:  proc/nbgrp/npool/nimage =       4
     Reading input from wd/kpoints/file_000111.in
Warning: card &IONS ignored
Warning: card ION_DYNAMICS = 'BFGS', ignored
Warning: card / ignored
Warning: card &CELL ignored
Warning: card CELL_DYNAMICS = 'BFGS', ignored
Warning: card CELL_FACTOR = 2.0, ignored
Warning: card PRESS = 0.0, ignored
Warning: card / ignored

     Current dimensions of program PWSCF are:
     Max number of different atomic species (ntypx) = 10
     Max number of k-points (npk) =  40000
     Max angular momentum in pseudopotentials (lmaxx) =  3
               file Al.pbe-nl-kjpaw_psl.1.0.0.UPF: wavefunction(s)  3S 3P renormalized

     Subspace diagonalization in iterative solution of the eigenvalue problem:
     a serial algorithm will be used


     Parallelization info
     --------------------
     sticks:   dense  smooth     PW     G-vecs:    dense   smooth      PW
     Min         187     187     58                 3817     3817     650
     Max         188     188     59                 3820     3820     651
     Sum         749     749    233                15275    15275    2601



     bravais-lattice index     =            0
     lattice parameter (alat)  =       7.6356  a.u.
     unit-cell volume          =     445.1737 (a.u.)^3
     number of atoms/cell      =            4
     number of atomic types    =            1
     number of electrons       =        12.00
     number of Kohn-Sham states=           10
     kinetic-energy cutoff     =      40.0000  Ry
     charge density cutoff     =     160.0000  Ry
     convergence threshold     =      1.0E-06
     mixing beta               =       0.1000
     number of iterations used =           10  TF        mixing
     Exchange-correlation      = SLA PW PBX PBC ( 1  4  3  4 0 0)

     celldm(1)=   7.635600  celldm(2)=   0.000000  celldm(3)=   0.000000
     celldm(4)=   0.000000  celldm(5)=   0.000000  celldm(6)=   0.000000

     crystal axes: (cart. coord. in units of alat)
               a(1) = (   1.000000   0.000000   0.000000 )  
               a(2) = (   0.000000   1.000000   0.000000 )  
               a(3) = (   0.000000   0.000000   1.000000 )  

     reciprocal axes: (cart. coord. in units 2 pi/alat)
               b(1) = (  1.000000  0.000000  0.000000 )  
               b(2) = (  0.000000  1.000000  0.000000 )  
               b(3) = (  0.000000  0.000000  1.000000 )  


     PseudoPot. # 1 for Al read from file:
     /opt/pp/Al.pbe-nl-kjpaw_psl.1.0.0.UPF
     MD5 check sum: 1b67f78b73fe58c7924490f171ce8a1e
     Pseudo is Projector augmented-wave + core cor, Zval =  3.0
     Generated using "atomic" code by A. Dal Corso v.6.3
     Shape of augmentation charge: PSQ
     Using radial grid of 1135 points,  4 beta functions with: 
                l(1) =   0
                l(2) =   0
                l(3) =   1
                l(4) =   1
     Q(r) pseudized with 0 coefficients 


     atomic species   valence    mass     pseudopotential
        Al             3.00    26.98200     Al( 1.00)

     No symmetry found



   Cartesian axes

     site n.     atom                  positions (alat units)
         1           Al  tau(   1) = (  -0.0000654   0.0000190   0.0001361  )
         2           Al  tau(   2) = (   0.5001592   0.4996200   0.0001406  )
         3           Al  tau(   3) = (   0.4998143   0.0000610   0.5005910  )
         4           Al  tau(   4) = (  -0.0000400   0.5004374   0.5003674  )

     number of k points=    63  Marzari-Vanderbilt smearing, width (Ry)=  0.0400
                       cart. coord. in units 2pi/alat
        k(    1) = (   0.1000000   0.1000000   0.1000000), wk =   0.0320000
        k(    2) = (   0.1000000   0.1000000   0.3000000), wk =   0.0320000
        k(    3) = (   0.1000000   0.1000000  -0.5000000), wk =   0.0320000
        k(    4) = (   0.1000000   0.3000000   0.3000000), wk =   0.0320000
        k(    5) = (   0.1000000   0.3000000  -0.5000000), wk =   0.0320000
        k(    6) = (   0.1000000  -0.5000000  -0.5000000), wk =   0.0320000
        k(    7) = (   0.3000000   0.3000000   0.3000000), wk =   0.0320000
        k(    8) = (   0.3000000   0.3000000  -0.5000000), wk =   0.0320000
        k(    9) = (   0.3000000  -0.5000000  -0.5000000), wk =   0.0320000
        k(   10) = (  -0.5000000  -0.5000000  -0.5000000), wk =   0.0160000
        k(   11) = (  -0.1000000  -0.1000000   0.1000000), wk =   0.0320000
        k(   12) = (  -0.1000000   0.1000000  -0.1000000), wk =   0.0320000
        k(   13) = (   0.1000000  -0.1000000  -0.1000000), wk =   0.0320000
        k(   14) = (  -0.1000000  -0.1000000   0.3000000), wk =   0.0320000
        k(   15) = (  -0.1000000   0.1000000  -0.3000000), wk =   0.0320000
        k(   16) = (   0.1000000  -0.1000000  -0.3000000), wk =   0.0320000
        k(   17) = (   0.3000000  -0.1000000   0.1000000), wk =   0.0320000
        k(   18) = (  -0.3000000  -0.1000000  -0.1000000), wk =   0.0320000
        k(   19) = (   0.3000000   0.1000000  -0.1000000), wk =   0.0320000
        k(   20) = (  -0.3000000   0.1000000   0.1000000), wk =   0.0320000
        k(   21) = (  -0.1000000   0.3000000   0.1000000), wk =   0.0320000
        k(   22) = (  -0.1000000  -0.3000000  -0.1000000), wk =   0.0320000
        k(   23) = (   0.1000000   0.3000000  -0.1000000), wk =   0.0320000
        k(   24) = (   0.1000000  -0.3000000   0.1000000), wk =   0.0320000
        k(   25) = (  -0.1000000   0.1000000   0.5000000), wk =   0.0320000
        k(   26) = (  -0.5000000  -0.1000000   0.1000000), wk =   0.0320000
        k(   27) = (   0.5000000  -0.1000000  -0.1000000), wk =   0.0320000
        k(   28) = (  -0.1000000  -0.5000000   0.1000000), wk =   0.0320000
        k(   29) = (  -0.1000000   0.5000000  -0.1000000), wk =   0.0320000
        k(   30) = (  -0.1000000  -0.3000000   0.3000000), wk =   0.0320000
        k(   31) = (  -0.1000000   0.3000000  -0.3000000), wk =   0.0320000
        k(   32) = (   0.1000000  -0.3000000  -0.3000000), wk =   0.0320000
        k(   33) = (   0.3000000   0.1000000  -0.3000000), wk =   0.0320000
        k(   34) = (  -0.3000000  -0.1000000  -0.3000000), wk =   0.0320000
        k(   35) = (   0.3000000  -0.1000000   0.3000000), wk =   0.0320000
        k(   36) = (  -0.3000000   0.1000000   0.3000000), wk =   0.0320000
        k(   37) = (   0.3000000  -0.3000000   0.1000000), wk =   0.0320000
        k(   38) = (  -0.3000000  -0.3000000  -0.1000000), wk =   0.0320000
        k(   39) = (   0.3000000   0.3000000  -0.1000000), wk =   0.0320000
        k(   40) = (  -0.3000000   0.3000000   0.1000000), wk =   0.0320000
        k(   41) = (  -0.1000000   0.3000000   0.5000000), wk =   0.0320000
        k(   42) = (   0.3000000   0.1000000   0.5000000), wk =   0.0320000
        k(   43) = (   0.3000000  -0.1000000  -0.5000000), wk =   0.0320000
        k(   44) = (  -0.5000000  -0.3000000   0.1000000), wk =   0.0320000
        k(   45) = (   0.5000000  -0.3000000  -0.1000000), wk =   0.0320000
        k(   46) = (  -0.1000000  -0.5000000   0.3000000), wk =   0.0320000
        k(   47) = (  -0.1000000   0.5000000  -0.3000000), wk =   0.0320000
        k(   48) = (   0.3000000  -0.5000000   0.1000000), wk =   0.0320000
        k(   49) = (   0.3000000   0.5000000  -0.1000000), wk =   0.0320000
        k(   50) = (  -0.5000000   0.1000000   0.3000000), wk =   0.0320000
        k(   51) = (   0.5000000  -0.1000000   0.3000000), wk =   0.0320000
        k(   52) = (  -0.5000000   0.1000000   0.5000000), wk =   0.0320000
        k(   53) = (  -0.5000000   0.5000000   0.1000000), wk =   0.0320000
        k(   54) = (  -0.3000000  -0.3000000   0.3000000), wk =   0.0320000
        k(   55) = (  -0.3000000   0.3000000  -0.3000000), wk =   0.0320000
        k(   56) = (   0.3000000  -0.3000000  -0.3000000), wk =   0.0320000
        k(   57) = (  -0.3000000   0.3000000   0.5000000), wk =   0.0320000
        k(   58) = (  -0.5000000  -0.3000000   0.3000000), wk =   0.0320000
        k(   59) = (   0.5000000  -0.3000000  -0.3000000), wk =   0.0320000
        k(   60) = (  -0.3000000  -0.5000000   0.3000000), wk =   0.0320000
        k(   61) = (  -0.3000000   0.5000000  -0.3000000), wk =   0.0320000
        k(   62) = (  -0.5000000   0.3000000   0.5000000), wk =   0.0320000
        k(   63) = (  -0.5000000   0.5000000   0.3000000), wk =   0.0320000

     Dense  grid:    15275 G-vectors     FFT dimensions: (  32,  32,  32)

     Estimated max dynamical RAM per process >      10.73 MB

     Estimated total dynamical RAM >      42.91 MB

     Initial potential from superposition of free atoms

     starting charge   11.99084, renormalised to   12.00000
     Starting wfcs are   16 randomized atomic wfcs
     Checking if some PAW data can be deallocated... 

     total cpu time spent up to now is        1.2 secs

     Self-consistent Calculation

     iteration #  1     ecut=    40.00 Ry     beta= 0.10
     Davidson diagonalization with overlap
     ethr =  1.00E-02,  avg # of iterations =  3.1

     Threshold (ethr) on eigenvalues was too large:
     Diagonalizing with lowered threshold

     Davidson diagonalization with overlap
     ethr =  1.95E-04,  avg # of iterations =  3.6

     total cpu time spent up to now is        3.4 secs

     total energy              =    -158.00809363 Ry
     Harris-Foulkes estimate   =    -158.00889593 Ry
     estimated scf accuracy    <       0.02273142 Ry

     iteration #  2     ecut=    40.00 Ry     beta= 0.10
     Davidson diagonalization with overlap
     ethr =  1.89E-04,  avg # of iterations =  1.0

     total cpu time spent up to now is        4.2 secs

     total energy              =    -158.00218902 Ry
     Harris-Foulkes estimate   =    -158.00820751 Ry
     estimated scf accuracy    <       0.01959474 Ry

     iteration #  3     ecut=    40.00 Ry     beta= 0.10
     Davidson diagonalization with overlap
     ethr =  1.63E-04,  avg # of iterations =  1.0

     total cpu time spent up to now is        5.0 secs

     total energy              =    -158.00251445 Ry
     Harris-Foulkes estimate   =    -158.00255658 Ry
     estimated scf accuracy    <       0.00008931 Ry

     iteration #  4     ecut=    40.00 Ry     beta= 0.10
     Davidson diagonalization with overlap
     ethr =  7.44E-07,  avg # of iterations =  4.4

     total cpu time spent up to now is        6.7 secs

     total energy              =    -158.00257473 Ry
     Harris-Foulkes estimate   =    -158.00258847 Ry
     estimated scf accuracy    <       0.00005432 Ry

     iteration #  5     ecut=    40.00 Ry     beta= 0.10
     Davidson diagonalization with overlap
     ethr =  4.53E-07,  avg # of iterations =  1.0

     total cpu time spent up to now is        7.5 secs

     total energy              =    -158.00253163 Ry
     Harris-Foulkes estimate   =    -158.00257597 Ry
     estimated scf accuracy    <       0.00004077 Ry

     iteration #  6     ecut=    40.00 Ry     beta= 0.10
     Davidson diagonalization with overlap
     ethr =  3.40E-07,  avg # of iterations =  2.0

     total cpu time spent up to now is        8.7 secs

     End of self-consistent calculation

          k = 0.1000 0.1000 0.1000 (  1899 PWs)   bands (ev):

    -2.9611   4.0418   4.0442   4.0466   7.7415   7.7442   7.7468  10.7607
    10.7637  10.7667

          k = 0.1000 0.1000 0.3000 (  1906 PWs)   bands (ev):

    -2.2387   1.3160   4.7250   4.7284   8.0300   8.0361   8.5372   8.5379
    11.3566  11.7967

          k = 0.1000 0.1000-0.5000 (  1918 PWs)   bands (ev):

    -0.8084  -0.8013   5.9698   5.9704   6.2113   6.2122   9.5131   9.5135
    10.1748  10.1759

          k = 0.1000 0.3000 0.3000 (  1902 PWs)   bands (ev):

    -1.5199   2.0154   2.0186   5.3106   5.5767   8.7949   8.7993   9.1505
    12.1851  12.1922

          k = 0.1000 0.3000-0.5000 (  1890 PWs)   bands (ev):

    -0.0967  -0.0896   3.4042   3.4114   6.7769   6.7846  10.1402  10.1482
    10.4851  10.4918

          k = 0.1000-0.5000-0.5000 (  1908 PWs)   bands (ev):

     1.3156   1.3161   1.3228   1.3240   8.1283   8.1289   8.1364   8.1378
    11.8296  11.8335

          k = 0.3000 0.3000 0.3000 (  1914 PWs)   bands (ev):

    -0.8047   2.7117   2.7142   2.7167   6.1655   6.1683   6.1710   9.5506
    13.0710  13.0729

          k = 0.3000 0.3000-0.5000 (  1898 PWs)   bands (ev):

     0.6116   0.6187   3.9827   3.9833   4.2320   4.2329   7.5265   7.5341
    14.1700  14.5707

          k = 0.3000-0.5000-0.5000 (  1900 PWs)   bands (ev):

     2.0168   2.0173   2.0241   2.0252   5.4862   5.4866   5.4936   5.4948
    15.6217  15.6270

          k =-0.5000-0.5000-0.5000 (  1904 PWs)   bands (ev):

     3.3111   3.3114   3.3116   3.3121   3.5282   3.5293   3.5295   3.5299
    19.3120  19.3129

          k =-0.1000-0.1000 0.1000 (  1899 PWs)   bands (ev):

    -2.9611   4.0422   4.0442   4.0461   7.7420   7.7442   7.7463  10.7612
    10.7637  10.7661

          k =-0.1000 0.1000-0.1000 (  1899 PWs)   bands (ev):

    -2.9611   4.0428   4.0441   4.0455   7.7426   7.7442   7.7457  10.7619
    10.7637  10.7654

          k = 0.1000-0.1000-0.1000 (  1899 PWs)   bands (ev):

    -2.9611   4.0425   4.0442   4.0459   7.7422   7.7442   7.7461  10.7615
    10.7637  10.7658

          k =-0.1000-0.1000 0.3000 (  1906 PWs)   bands (ev):

    -2.2387   1.3160   4.7250   4.7284   8.0300   8.0361   8.5372   8.5379
    11.3566  11.7975

          k =-0.1000 0.1000-0.3000 (  1906 PWs)   bands (ev):

    -2.2387   1.3160   4.7259   4.7275   8.0317   8.0345   8.5374   8.5377
    11.3566  11.7969

          k = 0.1000-0.1000-0.3000 (  1906 PWs)   bands (ev):

    -2.2387   1.3160   4.7259   4.7275   8.0316   8.0345   8.5374   8.5377
    11.3566  11.7973

          k = 0.3000-0.1000 0.1000 (  1906 PWs)   bands (ev):

    -2.2387   1.3160   4.7259   4.7275   8.0316   8.0345   8.5374   8.5378
    11.3566  11.7969

          k =-0.3000-0.1000-0.1000 (  1906 PWs)   bands (ev):

    -2.2387   1.3160   4.7252   4.7282   8.0305   8.0357   8.5372   8.5379
    11.3566  11.7966

          k = 0.3000 0.1000-0.1000 (  1906 PWs)   bands (ev):

    -2.2387   1.3160   4.7259   4.7275   8.0316   8.0345   8.5374   8.5378
    11.3566  11.7966

          k =-0.3000 0.1000 0.1000 (  1906 PWs)   bands (ev):

    -2.2387   1.3160   4.7252   4.7282   8.0305   8.0357   8.5372   8.5379
    11.3566  11.7969

          k =-0.1000 0.3000 0.1000 (  1906 PWs)   bands (ev):

    -2.2387   1.3160   4.7264   4.7270   8.0326   8.0335   8.5375   8.5377
    11.3566  11.7964

          k =-0.1000-0.3000-0.1000 (  1906 PWs)   bands (ev):

    -2.2387   1.3160   4.7260   4.7275   8.0316   8.0345   8.5375   8.5376
    11.3566  11.7963

          k = 0.1000 0.3000-0.1000 (  1906 PWs)   bands (ev):

    -2.2387   1.3160   4.7264   4.7270   8.0326   8.0335   8.5375   8.5377
    11.3566  11.7968

          k = 0.1000-0.3000 0.1000 (  1906 PWs)   bands (ev):

    -2.2387   1.3160   4.7260   4.7275   8.0316   8.0345   8.5375   8.5376
    11.3567  11.7963

          k =-0.1000 0.1000 0.5000 (  1918 PWs)   bands (ev):

    -0.8084  -0.8013   5.9698   5.9704   6.2112   6.2122   9.5131   9.5134
    10.1748  10.1759

          k =-0.5000-0.1000 0.1000 (  1918 PWs)   bands (ev):

    -0.8054  -0.8044   5.9700   5.9704   6.2113   6.2120   9.5131   9.5134
    10.1749  10.1757

          k = 0.5000-0.1000-0.1000 (  1918 PWs)   bands (ev):

    -0.8054  -0.8044   5.9700   5.9704   6.2113   6.2120   9.5131   9.5134
    10.1749  10.1757

          k =-0.1000-0.5000 0.1000 (  1918 PWs)   bands (ev):

    -0.8051  -0.8047   5.9701   5.9703   6.2115   6.2118   9.5132   9.5133
    10.1751  10.1755

          k =-0.1000 0.5000-0.1000 (  1918 PWs)   bands (ev):

    -0.8051  -0.8047   5.9700   5.9703   6.2115   6.2118   9.5132   9.5134
    10.1752  10.1755

          k =-0.1000-0.3000 0.3000 (  1902 PWs)   bands (ev):

    -1.5199   2.0161   2.0179   5.3106   5.5767   8.7959   8.7983   9.1505
    12.1872  12.1907

          k =-0.1000 0.3000-0.3000 (  1902 PWs)   bands (ev):

    -1.5199   2.0162   2.0179   5.3106   5.5767   8.7959   8.7983   9.1505
    12.1871  12.1906

          k = 0.1000-0.3000-0.3000 (  1902 PWs)   bands (ev):

    -1.5199   2.0154   2.0186   5.3106   5.5767   8.7949   8.7993   9.1505
    12.1853  12.1917

          k = 0.3000 0.1000-0.3000 (  1902 PWs)   bands (ev):

    -1.5199   2.0167   2.0173   5.3106   5.5768   8.7967   8.7975   9.1505
    12.1884  12.1894

          k =-0.3000-0.1000-0.3000 (  1902 PWs)   bands (ev):

    -1.5199   2.0162   2.0178   5.3106   5.5767   8.7959   8.7982   9.1505
    12.1871  12.1900

          k = 0.3000-0.1000 0.3000 (  1902 PWs)   bands (ev):

    -1.5199   2.0162   2.0178   5.3106   5.5767   8.7959   8.7982   9.1505
    12.1872  12.1900

          k =-0.3000 0.1000 0.3000 (  1902 PWs)   bands (ev):

    -1.5199   2.0167   2.0173   5.3106   5.5767   8.7967   8.7975   9.1505
    12.1883  12.1896

          k = 0.3000-0.3000 0.1000 (  1902 PWs)   bands (ev):

    -1.5199   2.0162   2.0179   5.3106   5.5767   8.7959   8.7983   9.1505
    12.1873  12.1908

          k =-0.3000-0.3000-0.1000 (  1902 PWs)   bands (ev):

    -1.5199   2.0152   2.0189   5.3106   5.5767   8.7946   8.7996   9.1505
    12.1852  12.1927

          k = 0.3000 0.3000-0.1000 (  1902 PWs)   bands (ev):

    -1.5199   2.0152   2.0189   5.3106   5.5767   8.7946   8.7996   9.1505
    12.1851  12.1928

          k =-0.3000 0.3000 0.1000 (  1902 PWs)   bands (ev):

    -1.5199   2.0162   2.0179   5.3106   5.5767   8.7959   8.7983   9.1505
    12.1871  12.1908

          k =-0.1000 0.3000 0.5000 (  1890 PWs)   bands (ev):

    -0.0967  -0.0896   3.4042   3.4114   6.7769   6.7846  10.1401  10.1482
    10.4851  10.4918

          k = 0.3000 0.1000 0.5000 (  1890 PWs)   bands (ev):

    -0.0967  -0.0896   3.4042   3.4114   6.7769   6.7846  10.1401  10.1482
    10.4851  10.4918

          k = 0.3000-0.1000-0.5000 (  1890 PWs)   bands (ev):

    -0.0967  -0.0896   3.4042   3.4114   6.7769   6.7846  10.1401  10.1482
    10.4851  10.4918

          k =-0.5000-0.3000 0.1000 (  1890 PWs)   bands (ev):

    -0.0936  -0.0927   3.4073   3.4083   6.7802   6.7812  10.1437  10.1447
    10.4880  10.4889

          k = 0.5000-0.3000-0.1000 (  1890 PWs)   bands (ev):

    -0.0936  -0.0927   3.4073   3.4083   6.7802   6.7812  10.1437  10.1447
    10.4880  10.4889

          k =-0.1000-0.5000 0.3000 (  1890 PWs)   bands (ev):

    -0.0934  -0.0930   3.4076   3.4080   6.7805   6.7809  10.1439  10.1444
    10.4882  10.4887

          k =-0.1000 0.5000-0.3000 (  1890 PWs)   bands (ev):

    -0.0934  -0.0930   3.4076   3.4080   6.7805   6.7809  10.1440  10.1444
    10.4882  10.4887

          k = 0.3000-0.5000 0.1000 (  1890 PWs)   bands (ev):

    -0.0934  -0.0930   3.4076   3.4080   6.7805   6.7810  10.1440  10.1444
    10.4882  10.4887

          k = 0.3000 0.5000-0.1000 (  1890 PWs)   bands (ev):

    -0.0934  -0.0930   3.4076   3.4080   6.7805   6.7810  10.1439  10.1444
    10.4882  10.4887

          k =-0.5000 0.1000 0.3000 (  1890 PWs)   bands (ev):

    -0.0936  -0.0927   3.4073   3.4083   6.7802   6.7812  10.1436  10.1447
    10.4880  10.4889

          k = 0.5000-0.1000 0.3000 (  1890 PWs)   bands (ev):

    -0.0936  -0.0927   3.4073   3.4083   6.7802   6.7812  10.1437  10.1447
    10.4880  10.4889

          k =-0.5000 0.1000 0.5000 (  1908 PWs)   bands (ev):

     1.3157   1.3164   1.3225   1.3239   8.1285   8.1292   8.1360   8.1377
    11.8272  11.8320

          k =-0.5000 0.5000 0.1000 (  1908 PWs)   bands (ev):

     1.3177   1.3188   1.3204   1.3217   8.1303   8.1317   8.1339   8.1355
    11.8294  11.8308

          k =-0.3000-0.3000 0.3000 (  1914 PWs)   bands (ev):

    -0.8047   2.7121   2.7142   2.7162   6.1660   6.1683   6.1704   9.5506
    13.0717  13.0734

          k =-0.3000 0.3000-0.3000 (  1914 PWs)   bands (ev):

    -0.8047   2.7128   2.7142   2.7157   6.1667   6.1682   6.1698   9.5506
    13.0712  13.0734

          k = 0.3000-0.3000-0.3000 (  1914 PWs)   bands (ev):

    -0.8047   2.7124   2.7142   2.7160   6.1663   6.1683   6.1702   9.5506
    13.0710  13.0740

          k =-0.3000 0.3000 0.5000 (  1898 PWs)   bands (ev):

     0.6116   0.6187   3.9827   3.9832   4.2320   4.2329   7.5265   7.5341
    14.1701  14.5703

          k =-0.5000-0.3000 0.3000 (  1898 PWs)   bands (ev):

     0.6147   0.6156   3.9828   3.9832   4.2321   4.2328   7.5298   7.5308
    14.1701  14.5706

          k = 0.5000-0.3000-0.3000 (  1898 PWs)   bands (ev):

     0.6147   0.6156   3.9828   3.9832   4.2321   4.2328   7.5298   7.5308
    14.5697  14.5704

          k =-0.3000-0.5000 0.3000 (  1898 PWs)   bands (ev):

     0.6149   0.6154   3.9830   3.9831   4.2322   4.2326   7.5301   7.5305
    14.5700  14.5704

          k =-0.3000 0.5000-0.3000 (  1898 PWs)   bands (ev):

     0.6149   0.6154   3.9829   3.9832   4.2323   4.2326   7.5301   7.5305
    14.5694  14.5702

          k =-0.5000 0.3000 0.5000 (  1900 PWs)   bands (ev):

     2.0169   2.0176   2.0238   2.0251   5.4862   5.4869   5.4933   5.4947
    15.6225  15.6285

          k =-0.5000 0.5000 0.3000 (  1900 PWs)   bands (ev):

     2.0189   2.0200   2.0216   2.0229   5.4883   5.4894   5.4911   5.4924
    15.6230  15.6256

     the Fermi energy is     8.0745 ev

!    total energy              =    -158.00254139 Ry
     Harris-Foulkes estimate   =    -158.00254159 Ry
     estimated scf accuracy    <       0.00000093 Ry

     total all-electron energy =     -1942.573663 Ry

     The total energy is the sum of the following terms:

     one-electron contribution =      12.66924162 Ry
     hartree contribution      =       0.02425620 Ry
     xc contribution           =     -10.36346256 Ry
     ewald contribution        =     -21.61650270 Ry
     one-center paw contrib.   =    -138.70853056 Ry
     smearing contrib. (-TS)   =      -0.00754340 Ry

     convergence has been achieved in   6 iterations

     Forces acting on atoms (cartesian axes, Ry/au):

     atom    1 type  1   force =     0.00006017   -0.00004539    0.00022750
     atom    2 type  1   force =    -0.00016968    0.00020108    0.00022868
     atom    3 type  1   force =     0.00004908    0.00005015   -0.00033259
     atom    4 type  1   force =     0.00006043   -0.00020584   -0.00012360

     Total force =     0.000596     Total SCF correction =     0.000224
     SCF correction compared to forces is large: reduce conv_thr to get better values


     Computing stress (Cartesian axis) and pressure

          total   stress  (Ry/bohr**3)                   (kbar)     P=    0.17
   0.00000113   0.00000001   0.00000001          0.17      0.00      0.00
   0.00000001   0.00000114   0.00000000          0.00      0.17      0.00
   0.00000001   0.00000000   0.00000115          0.00      0.00      0.17


     Writing output data file fe_scf_fcc_2.save/

     init_run     :      0.54s CPU      0.56s WALL (       1 calls)
     electrons    :      6.78s CPU      7.55s WALL (       1 calls)
     forces       :      0.15s CPU      0.15s WALL (       1 calls)
     stress       :      0.26s CPU      0.28s WALL (       1 calls)

     Called by init_run:
     wfcinit      :      0.39s CPU      0.42s WALL (       1 calls)
     potinit      :      0.06s CPU      0.06s WALL (       1 calls)
     hinit0       :      0.07s CPU      0.07s WALL (       1 calls)

     Called by electrons:
     c_bands      :      5.73s CPU      6.38s WALL (       7 calls)
     sum_band     :      0.67s CPU      0.76s WALL (       7 calls)
     v_of_rho     :      0.04s CPU      0.04s WALL (       7 calls)
     newd         :      0.02s CPU      0.02s WALL (       7 calls)
     PAW_pot      :      0.36s CPU      0.38s WALL (       7 calls)
     mix_rho      :      0.00s CPU      0.00s WALL (       7 calls)

     Called by c_bands:
     init_us_2    :      0.12s CPU      0.13s WALL (    1071 calls)
     cegterg      :      5.47s CPU      6.10s WALL (     441 calls)

     Called by sum_band:
     sum_band:bec :      0.00s CPU      0.00s WALL (     441 calls)
     addusdens    :      0.02s CPU      0.02s WALL (       7 calls)

     Called by *egterg:
     h_psi        :      3.92s CPU      4.36s WALL (    1518 calls)
     s_psi        :      0.31s CPU      0.34s WALL (    1518 calls)
     g_psi        :      0.02s CPU      0.02s WALL (    1014 calls)
     cdiaghg      :      0.34s CPU      0.38s WALL (    1392 calls)

     Called by h_psi:
     h_psi:pot    :      3.90s CPU      4.34s WALL (    1518 calls)
     h_psi:calbec :      0.58s CPU      0.64s WALL (    1518 calls)
     vloc_psi     :      3.01s CPU      3.36s WALL (    1518 calls)
     add_vuspsi   :      0.31s CPU      0.34s WALL (    1518 calls)

     General routines
     calbec       :      0.91s CPU      1.00s WALL (    2274 calls)
     fft          :      0.03s CPU      0.03s WALL (     103 calls)
     ffts         :      0.00s CPU      0.00s WALL (       7 calls)
     fftw         :      3.14s CPU      3.50s WALL (   29422 calls)

     Parallel routines
     fft_scatt_xy :      0.40s CPU      0.45s WALL (   29532 calls)
     fft_scatt_yz :      1.76s CPU      1.96s WALL (   29532 calls)

     PWSCF        :      8.23s CPU      9.24s WALL


   This run was terminated on:   6:57: 4   9Mar2020            

=------------------------------------------------------------------------------=
   JOB DONE.
=------------------------------------------------------------------------------=
