
     Program PWSCF v.6.4.1 starts on 11Mar2020 at 16:45:49 

     This program is part of the open-source Quantum ESPRESSO suite
     for quantum simulation of materials; please cite
         "P. Giannozzi et al., J. Phys.:Condens. Matter 21 395502 (2009);
         "P. Giannozzi et al., J. Phys.:Condens. Matter 29 465901 (2017);
          URL http://www.quantum-espresso.org", 
     in publications or presentations arising from this work. More details at
     http://www.quantum-espresso.org/quote

     Parallel version (MPI), running on     4 processors

     MPI processes distributed on     1 nodes
     R & G space division:  proc/nbgrp/npool/nimage =       4
     Reading input from wd/kpoints/file_000261.in
Warning: card &IONS ignored
Warning: card ION_DYNAMICS = 'BFGS', ignored
Warning: card / ignored
Warning: card &CELL ignored
Warning: card CELL_DYNAMICS = 'BFGS', ignored
Warning: card CELL_FACTOR = 2.0, ignored
Warning: card PRESS = 0.0, ignored
Warning: card / ignored

     Current dimensions of program PWSCF are:
     Max number of different atomic species (ntypx) = 10
     Max number of k-points (npk) =  40000
     Max angular momentum in pseudopotentials (lmaxx) =  3
               file Al.pbe-nl-kjpaw_psl.1.0.0.UPF: wavefunction(s)  3S 3P renormalized

     Subspace diagonalization in iterative solution of the eigenvalue problem:
     a serial algorithm will be used


     Parallelization info
     --------------------
     sticks:   dense  smooth     PW     G-vecs:    dense   smooth      PW
     Min         121     121     36                 2046     2006     354
     Max         124     124     38                 2068     2007     357
     Sum         489     489    149                 8217     8025    1419



     bravais-lattice index     =            0
     lattice parameter (alat)  =       7.6356  a.u.
     unit-cell volume          =     445.1737 (a.u.)^3
     number of atoms/cell      =            4
     number of atomic types    =            1
     number of electrons       =        12.00
     number of Kohn-Sham states=           10
     kinetic-energy cutoff     =      26.0000  Ry
     charge density cutoff     =     105.0000  Ry
     convergence threshold     =      1.0E-06
     mixing beta               =       0.1000
     number of iterations used =           10  TF        mixing
     Exchange-correlation      = SLA PW PBX PBC ( 1  4  3  4 0 0)

     celldm(1)=   7.635600  celldm(2)=   0.000000  celldm(3)=   0.000000
     celldm(4)=   0.000000  celldm(5)=   0.000000  celldm(6)=   0.000000

     crystal axes: (cart. coord. in units of alat)
               a(1) = (   1.000000   0.000000   0.000000 )  
               a(2) = (   0.000000   1.000000   0.000000 )  
               a(3) = (   0.000000   0.000000   1.000000 )  

     reciprocal axes: (cart. coord. in units 2 pi/alat)
               b(1) = (  1.000000  0.000000  0.000000 )  
               b(2) = (  0.000000  1.000000  0.000000 )  
               b(3) = (  0.000000  0.000000  1.000000 )  


     PseudoPot. # 1 for Al read from file:
     /opt/pp/Al.pbe-nl-kjpaw_psl.1.0.0.UPF
     MD5 check sum: 1b67f78b73fe58c7924490f171ce8a1e
     Pseudo is Projector augmented-wave + core cor, Zval =  3.0
     Generated using "atomic" code by A. Dal Corso v.6.3
     Shape of augmentation charge: PSQ
     Using radial grid of 1135 points,  4 beta functions with: 
                l(1) =   0
                l(2) =   0
                l(3) =   1
                l(4) =   1
     Q(r) pseudized with 0 coefficients 


     atomic species   valence    mass     pseudopotential
        Al             3.00    26.98200     Al( 1.00)

     No symmetry found



   Cartesian axes

     site n.     atom                  positions (alat units)
         1           Al  tau(   1) = (  -0.0000654   0.0000190   0.0001361  )
         2           Al  tau(   2) = (   0.5001592   0.4996200   0.0001406  )
         3           Al  tau(   3) = (   0.4998143   0.0000610   0.5005910  )
         4           Al  tau(   4) = (  -0.0000400   0.5004374   0.5003674  )

     number of k points=  1372  Marzari-Vanderbilt smearing, width (Ry)=  0.0500

     Number of k-points >= 100: set verbosity='high' to print them.

     Dense  grid:     8217 G-vectors     FFT dimensions: (  25,  25,  25)

     Smooth grid:     8025 G-vectors     FFT dimensions: (  25,  25,  25)

     Estimated max dynamical RAM per process >      55.53 MB

     Estimated total dynamical RAM >     222.12 MB

     Initial potential from superposition of free atoms

     starting charge   11.99084, renormalised to   12.00000
     Starting wfcs are   16 randomized atomic wfcs
     Checking if some PAW data can be deallocated... 

     total cpu time spent up to now is        3.7 secs

     Self-consistent Calculation

     iteration #  1     ecut=    26.00 Ry     beta= 0.10
     Davidson diagonalization with overlap
     ethr =  1.00E-02,  avg # of iterations =  3.3

     Threshold (ethr) on eigenvalues was too large:
     Diagonalizing with lowered threshold

     Davidson diagonalization with overlap
     ethr =  1.94E-04,  avg # of iterations =  3.7

     total cpu time spent up to now is       18.9 secs

     total energy              =    -158.01537539 Ry
     Harris-Foulkes estimate   =    -158.01616259 Ry
     estimated scf accuracy    <       0.02255554 Ry

     iteration #  2     ecut=    26.00 Ry     beta= 0.10
     Davidson diagonalization with overlap
     ethr =  1.88E-04,  avg # of iterations =  1.0

     total cpu time spent up to now is       23.7 secs

     total energy              =    -158.00954244 Ry
     Harris-Foulkes estimate   =    -158.01547671 Ry
     estimated scf accuracy    <       0.01944483 Ry

     iteration #  3     ecut=    26.00 Ry     beta= 0.10
     Davidson diagonalization with overlap
     ethr =  1.62E-04,  avg # of iterations =  1.0

     total cpu time spent up to now is       28.6 secs

     total energy              =    -158.00985787 Ry
     Harris-Foulkes estimate   =    -158.00989752 Ry
     estimated scf accuracy    <       0.00008597 Ry

     iteration #  4     ecut=    26.00 Ry     beta= 0.10
     Davidson diagonalization with overlap
     ethr =  7.16E-07,  avg # of iterations =  3.8

     total cpu time spent up to now is       37.8 secs

     total energy              =    -158.00991212 Ry
     Harris-Foulkes estimate   =    -158.00992550 Ry
     estimated scf accuracy    <       0.00005417 Ry

     iteration #  5     ecut=    26.00 Ry     beta= 0.10
     Davidson diagonalization with overlap
     ethr =  4.51E-07,  avg # of iterations =  1.0

     total cpu time spent up to now is       42.8 secs

     total energy              =    -158.00987134 Ry
     Harris-Foulkes estimate   =    -158.00991348 Ry
     estimated scf accuracy    <       0.00004132 Ry

     iteration #  6     ecut=    26.00 Ry     beta= 0.10
     Davidson diagonalization with overlap
     ethr =  3.44E-07,  avg # of iterations =  2.0

     total cpu time spent up to now is       49.4 secs

     End of self-consistent calculation

     Number of k-points >= 100: set verbosity='high' to print the bands.

     the Fermi energy is     7.9206 ev

!    total energy              =    -158.00988043 Ry
     Harris-Foulkes estimate   =    -158.00988072 Ry
     estimated scf accuracy    <       0.00000093 Ry

     total all-electron energy =     -1942.581003 Ry

     The total energy is the sum of the following terms:

     one-electron contribution =      12.65783637 Ry
     hartree contribution      =       0.02461066 Ry
     xc contribution           =     -10.36432338 Ry
     ewald contribution        =     -21.61650270 Ry
     one-center paw contrib.   =    -138.71065672 Ry
     smearing contrib. (-TS)   =      -0.00084467 Ry

     convergence has been achieved in   6 iterations

     Forces acting on atoms (cartesian axes, Ry/au):

     atom    1 type  1   force =     0.00006577   -0.00004905    0.00023766
     atom    2 type  1   force =    -0.00019335    0.00023625    0.00023813
     atom    3 type  1   force =     0.00006272    0.00005593   -0.00035720
     atom    4 type  1   force =     0.00006487   -0.00024314   -0.00011859

     Total force =     0.000652     Total SCF correction =     0.000238
     SCF correction compared to forces is large: reduce conv_thr to get better values


     Computing stress (Cartesian axis) and pressure

          total   stress  (Ry/bohr**3)                   (kbar)     P=   -1.35
  -0.00000922   0.00000001   0.00000001         -1.36      0.00      0.00
   0.00000001  -0.00000921   0.00000000          0.00     -1.36      0.00
   0.00000001   0.00000000  -0.00000920          0.00      0.00     -1.35


     Writing output data file fe_scf_fcc_2.save/

     init_run     :      3.09s CPU      3.37s WALL (       1 calls)
     electrons    :     41.60s CPU     45.69s WALL (       1 calls)
     forces       :      0.74s CPU      0.76s WALL (       1 calls)
     stress       :      1.37s CPU      1.38s WALL (       1 calls)

     Called by init_run:
     wfcinit      :      3.00s CPU      3.28s WALL (       1 calls)
     potinit      :      0.04s CPU      0.04s WALL (       1 calls)
     hinit0       :      0.05s CPU      0.05s WALL (       1 calls)

     Called by electrons:
     c_bands      :     36.16s CPU     39.67s WALL (       7 calls)
     sum_band     :      5.23s CPU      5.80s WALL (       7 calls)
     v_of_rho     :      0.01s CPU      0.01s WALL (       7 calls)
     newd         :      0.01s CPU      0.01s WALL (       7 calls)
     PAW_pot      :      0.22s CPU      0.23s WALL (       7 calls)
     mix_rho      :      0.00s CPU      0.00s WALL (       7 calls)

     Called by c_bands:
     init_us_2    :      0.85s CPU      0.92s WALL (   23324 calls)
     cegterg      :     34.86s CPU     38.25s WALL (    9604 calls)

     Called by sum_band:
     sum_band:bec :      0.03s CPU      0.04s WALL (    9604 calls)
     addusdens    :      0.00s CPU      0.01s WALL (       7 calls)

     Called by *egterg:
     h_psi        :     26.51s CPU     29.11s WALL (   32610 calls)
     s_psi        :      1.85s CPU      2.03s WALL (   32610 calls)
     g_psi        :      0.13s CPU      0.14s WALL (   21634 calls)
     cdiaghg      :      3.69s CPU      4.04s WALL (   29866 calls)

     Called by h_psi:
     h_psi:pot    :     26.44s CPU     29.03s WALL (   32610 calls)
     h_psi:calbec :      2.72s CPU      3.00s WALL (   32610 calls)
     vloc_psi     :     21.83s CPU     23.95s WALL (   32610 calls)
     add_vuspsi   :      1.85s CPU      2.04s WALL (   32610 calls)

     General routines
     calbec       :      4.39s CPU      4.79s WALL (   49074 calls)
     fft          :      0.01s CPU      0.01s WALL (     115 calls)
     ffts         :      0.00s CPU      0.00s WALL (      14 calls)
     fftw         :     23.67s CPU     26.02s WALL (  637726 calls)
     interpolate  :      0.00s CPU      0.00s WALL (       7 calls)

     Parallel routines
     fft_scatt_xy :      2.86s CPU      3.15s WALL (  637855 calls)
     fft_scatt_yz :     11.71s CPU     13.00s WALL (  637855 calls)

     PWSCF        :     47.52s CPU     52.16s WALL


   This run was terminated on:  16:46:41  11Mar2020            

=------------------------------------------------------------------------------=
   JOB DONE.
=------------------------------------------------------------------------------=
