
     Program PWSCF v.6.4.1 starts on 11Mar2020 at  7:18: 2 

     This program is part of the open-source Quantum ESPRESSO suite
     for quantum simulation of materials; please cite
         "P. Giannozzi et al., J. Phys.:Condens. Matter 21 395502 (2009);
         "P. Giannozzi et al., J. Phys.:Condens. Matter 29 465901 (2017);
          URL http://www.quantum-espresso.org", 
     in publications or presentations arising from this work. More details at
     http://www.quantum-espresso.org/quote

     Parallel version (MPI), running on     4 processors

     MPI processes distributed on     1 nodes
     R & G space division:  proc/nbgrp/npool/nimage =       4
     Reading input from wd/kpoints/file_000155.in
Warning: card &IONS ignored
Warning: card ION_DYNAMICS = 'BFGS', ignored
Warning: card / ignored
Warning: card &CELL ignored
Warning: card CELL_DYNAMICS = 'BFGS', ignored
Warning: card CELL_FACTOR = 2.0, ignored
Warning: card PRESS = 0.0, ignored
Warning: card / ignored

     Current dimensions of program PWSCF are:
     Max number of different atomic species (ntypx) = 10
     Max number of k-points (npk) =  40000
     Max angular momentum in pseudopotentials (lmaxx) =  3
               file Al.pbe-nl-kjpaw_psl.1.0.0.UPF: wavefunction(s)  3S 3P renormalized

     Subspace diagonalization in iterative solution of the eigenvalue problem:
     a serial algorithm will be used


     Parallelization info
     --------------------
     sticks:   dense  smooth     PW     G-vecs:    dense   smooth      PW
     Min         121     121     36                 2047     2006     338
     Max         124     124     37                 2058     2007     341
     Sum         489     489    145                 8217     8025    1357



     bravais-lattice index     =            0
     lattice parameter (alat)  =       7.6356  a.u.
     unit-cell volume          =     445.1737 (a.u.)^3
     number of atoms/cell      =            4
     number of atomic types    =            1
     number of electrons       =        12.00
     number of Kohn-Sham states=           10
     kinetic-energy cutoff     =      26.0000  Ry
     charge density cutoff     =     105.0000  Ry
     convergence threshold     =      1.0E-06
     mixing beta               =       0.1000
     number of iterations used =           10  TF        mixing
     Exchange-correlation      = SLA PW PBX PBC ( 1  4  3  4 0 0)

     celldm(1)=   7.635600  celldm(2)=   0.000000  celldm(3)=   0.000000
     celldm(4)=   0.000000  celldm(5)=   0.000000  celldm(6)=   0.000000

     crystal axes: (cart. coord. in units of alat)
               a(1) = (   1.000000   0.000000   0.000000 )  
               a(2) = (   0.000000   1.000000   0.000000 )  
               a(3) = (   0.000000   0.000000   1.000000 )  

     reciprocal axes: (cart. coord. in units 2 pi/alat)
               b(1) = (  1.000000  0.000000  0.000000 )  
               b(2) = (  0.000000  1.000000  0.000000 )  
               b(3) = (  0.000000  0.000000  1.000000 )  


     PseudoPot. # 1 for Al read from file:
     /opt/pp/Al.pbe-nl-kjpaw_psl.1.0.0.UPF
     MD5 check sum: 1b67f78b73fe58c7924490f171ce8a1e
     Pseudo is Projector augmented-wave + core cor, Zval =  3.0
     Generated using "atomic" code by A. Dal Corso v.6.3
     Shape of augmentation charge: PSQ
     Using radial grid of 1135 points,  4 beta functions with: 
                l(1) =   0
                l(2) =   0
                l(3) =   1
                l(4) =   1
     Q(r) pseudized with 0 coefficients 


     atomic species   valence    mass     pseudopotential
        Al             3.00    26.98200     Al( 1.00)

     No symmetry found



   Cartesian axes

     site n.     atom                  positions (alat units)
         1           Al  tau(   1) = (  -0.0000654   0.0000190   0.0001361  )
         2           Al  tau(   2) = (   0.5001592   0.4996200   0.0001406  )
         3           Al  tau(   3) = (   0.4998143   0.0000610   0.5005910  )
         4           Al  tau(   4) = (  -0.0000400   0.5004374   0.5003674  )

     number of k points=    32  Marzari-Vanderbilt smearing, width (Ry)=  0.0070
                       cart. coord. in units 2pi/alat
        k(    1) = (   0.1250000   0.1250000   0.1250000), wk =   0.0625000
        k(    2) = (   0.1250000   0.1250000   0.3750000), wk =   0.0625000
        k(    3) = (   0.1250000   0.3750000   0.3750000), wk =   0.0625000
        k(    4) = (   0.3750000   0.3750000   0.3750000), wk =   0.0625000
        k(    5) = (  -0.1250000  -0.1250000   0.1250000), wk =   0.0625000
        k(    6) = (  -0.1250000   0.1250000  -0.1250000), wk =   0.0625000
        k(    7) = (   0.1250000  -0.1250000  -0.1250000), wk =   0.0625000
        k(    8) = (  -0.1250000  -0.1250000   0.3750000), wk =   0.0625000
        k(    9) = (  -0.1250000   0.1250000  -0.3750000), wk =   0.0625000
        k(   10) = (   0.1250000  -0.1250000  -0.3750000), wk =   0.0625000
        k(   11) = (   0.3750000  -0.1250000   0.1250000), wk =   0.0625000
        k(   12) = (  -0.3750000  -0.1250000  -0.1250000), wk =   0.0625000
        k(   13) = (   0.3750000   0.1250000  -0.1250000), wk =   0.0625000
        k(   14) = (  -0.3750000   0.1250000   0.1250000), wk =   0.0625000
        k(   15) = (  -0.1250000   0.3750000   0.1250000), wk =   0.0625000
        k(   16) = (  -0.1250000  -0.3750000  -0.1250000), wk =   0.0625000
        k(   17) = (   0.1250000   0.3750000  -0.1250000), wk =   0.0625000
        k(   18) = (   0.1250000  -0.3750000   0.1250000), wk =   0.0625000
        k(   19) = (  -0.1250000  -0.3750000   0.3750000), wk =   0.0625000
        k(   20) = (  -0.1250000   0.3750000  -0.3750000), wk =   0.0625000
        k(   21) = (   0.1250000  -0.3750000  -0.3750000), wk =   0.0625000
        k(   22) = (   0.3750000   0.1250000  -0.3750000), wk =   0.0625000
        k(   23) = (  -0.3750000  -0.1250000  -0.3750000), wk =   0.0625000
        k(   24) = (   0.3750000  -0.1250000   0.3750000), wk =   0.0625000
        k(   25) = (  -0.3750000   0.1250000   0.3750000), wk =   0.0625000
        k(   26) = (   0.3750000  -0.3750000   0.1250000), wk =   0.0625000
        k(   27) = (  -0.3750000  -0.3750000  -0.1250000), wk =   0.0625000
        k(   28) = (   0.3750000   0.3750000  -0.1250000), wk =   0.0625000
        k(   29) = (  -0.3750000   0.3750000   0.1250000), wk =   0.0625000
        k(   30) = (  -0.3750000  -0.3750000   0.3750000), wk =   0.0625000
        k(   31) = (  -0.3750000   0.3750000  -0.3750000), wk =   0.0625000
        k(   32) = (   0.3750000  -0.3750000  -0.3750000), wk =   0.0625000

     Dense  grid:     8217 G-vectors     FFT dimensions: (  25,  25,  25)

     Smooth grid:     8025 G-vectors     FFT dimensions: (  25,  25,  25)

     Estimated max dynamical RAM per process >       4.63 MB

     Estimated total dynamical RAM >      18.50 MB

     Initial potential from superposition of free atoms

     starting charge   11.99084, renormalised to   12.00000
     Starting wfcs are   16 randomized atomic wfcs
     Checking if some PAW data can be deallocated... 

     total cpu time spent up to now is        0.7 secs

     Self-consistent Calculation

     iteration #  1     ecut=    26.00 Ry     beta= 0.10
     Davidson diagonalization with overlap
     ethr =  1.00E-02,  avg # of iterations =  3.1

     Threshold (ethr) on eigenvalues was too large:
     Diagonalizing with lowered threshold

     Davidson diagonalization with overlap
     ethr =  1.97E-04,  avg # of iterations =  3.1

     total cpu time spent up to now is        1.3 secs

     total energy              =    -157.99925847 Ry
     Harris-Foulkes estimate   =    -158.00001035 Ry
     estimated scf accuracy    <       0.02291135 Ry

     iteration #  2     ecut=    26.00 Ry     beta= 0.10
     Davidson diagonalization with overlap
     ethr =  1.91E-04,  avg # of iterations =  1.0

     total cpu time spent up to now is        1.5 secs

     total energy              =    -157.99365343 Ry
     Harris-Foulkes estimate   =    -157.99936555 Ry
     estimated scf accuracy    <       0.01974295 Ry

     iteration #  3     ecut=    26.00 Ry     beta= 0.10
     Davidson diagonalization with overlap
     ethr =  1.65E-04,  avg # of iterations =  1.0

     total cpu time spent up to now is        1.7 secs

     total energy              =    -157.99395267 Ry
     Harris-Foulkes estimate   =    -157.99399326 Ry
     estimated scf accuracy    <       0.00008960 Ry

     iteration #  4     ecut=    26.00 Ry     beta= 0.10
     Davidson diagonalization with overlap
     ethr =  7.47E-07,  avg # of iterations =  4.3

     total cpu time spent up to now is        2.1 secs

     total energy              =    -157.99399702 Ry
     Harris-Foulkes estimate   =    -157.99401465 Ry
     estimated scf accuracy    <       0.00005547 Ry

     iteration #  5     ecut=    26.00 Ry     beta= 0.10
     Davidson diagonalization with overlap
     ethr =  4.62E-07,  avg # of iterations =  1.0

     total cpu time spent up to now is        2.4 secs

     total energy              =    -157.99395540 Ry
     Harris-Foulkes estimate   =    -157.99399818 Ry
     estimated scf accuracy    <       0.00003954 Ry

     iteration #  6     ecut=    26.00 Ry     beta= 0.10
     Davidson diagonalization with overlap
     ethr =  3.29E-07,  avg # of iterations =  2.0

     total cpu time spent up to now is        2.6 secs

     total energy              =    -157.99396503 Ry
     Harris-Foulkes estimate   =    -157.99396509 Ry
     estimated scf accuracy    <       0.00000105 Ry

     iteration #  7     ecut=    26.00 Ry     beta= 0.10
     Davidson diagonalization with overlap
     ethr =  8.74E-09,  avg # of iterations =  1.5

     total cpu time spent up to now is        2.9 secs

     End of self-consistent calculation

          k = 0.1250 0.1250 0.1250 (   991 PWs)   bands (ev):

    -2.8057   3.7792   3.7811   3.7831   8.2874   8.2900   8.2924  10.1284
    10.1306  10.1328

          k = 0.1250 0.1250 0.3750 (   990 PWs)   bands (ev):

    -1.6795   0.5452   4.8477   4.8506   6.9835   6.9869   9.3744   9.3766
    11.1434  11.5424

          k = 0.1250 0.3750 0.3750 (   998 PWs)   bands (ev):

    -0.5622   1.6441   1.6468   3.8161   5.9364   8.0497   8.0531  10.1545
    10.4518  12.4996

          k = 0.3750 0.3750 0.3750 (   991 PWs)   bands (ev):

     0.5469   2.7338   2.7358   2.7379   4.9112   4.9133   4.9154   7.0481
    15.5154  15.5197

          k =-0.1250-0.1250 0.1250 (   991 PWs)   bands (ev):

    -2.8057   3.7795   3.7812   3.7827   8.2879   8.2900   8.2919  10.1288
    10.1306  10.1324

          k =-0.1250 0.1250-0.1250 (   991 PWs)   bands (ev):

    -2.8057   3.7801   3.7811   3.7823   8.2885   8.2899   8.2913  10.1294
    10.1306  10.1318

          k = 0.1250-0.1250-0.1250 (   991 PWs)   bands (ev):

    -2.8057   3.7797   3.7812   3.7826   8.2881   8.2900   8.2917  10.1290
    10.1306  10.1322

          k =-0.1250-0.1250 0.3750 (   990 PWs)   bands (ev):

    -1.6795   0.5452   4.8477   4.8506   6.9835   6.9869   9.3744   9.3766
    11.1434  11.5419

          k =-0.1250 0.1250-0.3750 (   990 PWs)   bands (ev):

    -1.6795   0.5452   4.8485   4.8498   6.9844   6.9860   9.3750   9.3760
    11.1434  11.5431

          k = 0.1250-0.1250-0.3750 (   990 PWs)   bands (ev):

    -1.6795   0.5452   4.8485   4.8498   6.9844   6.9860   9.3750   9.3760
    11.1434  11.5431

          k = 0.3750-0.1250 0.1250 (   990 PWs)   bands (ev):

    -1.6795   0.5452   4.8484   4.8499   6.9843   6.9860   9.3749   9.3760
    11.1435  11.5426

          k =-0.3750-0.1250-0.1250 (   990 PWs)   bands (ev):

    -1.6795   0.5452   4.8479   4.8504   6.9837   6.9866   9.3745   9.3764
    11.1434  11.5425

          k = 0.3750 0.1250-0.1250 (   990 PWs)   bands (ev):

    -1.6795   0.5452   4.8484   4.8499   6.9843   6.9860   9.3749   9.3760
    11.1435  11.5427

          k =-0.3750 0.1250 0.1250 (   990 PWs)   bands (ev):

    -1.6795   0.5452   4.8479   4.8504   6.9837   6.9866   9.3745   9.3764
    11.1434  11.5425

          k =-0.1250 0.3750 0.1250 (   990 PWs)   bands (ev):

    -1.6795   0.5452   4.8489   4.8494   6.9849   6.9855   9.3752   9.3757
    11.1435  11.5431

          k =-0.1250-0.3750-0.1250 (   990 PWs)   bands (ev):

    -1.6795   0.5452   4.8486   4.8497   6.9845   6.9858   9.3751   9.3758
    11.1435  11.5425

          k = 0.1250 0.3750-0.1250 (   990 PWs)   bands (ev):

    -1.6795   0.5452   4.8489   4.8494   6.9849   6.9855   9.3753   9.3757
    11.1434  11.5427

          k = 0.1250-0.3750 0.1250 (   990 PWs)   bands (ev):

    -1.6795   0.5452   4.8486   4.8497   6.9845   6.9858   9.3751   9.3758
    11.1435  11.5424

          k =-0.1250-0.3750 0.3750 (   998 PWs)   bands (ev):

    -0.5622   1.6447   1.6462   3.8161   5.9364   8.0505   8.0524  10.1545
    10.4518  12.4995

          k =-0.1250 0.3750-0.3750 (   998 PWs)   bands (ev):

    -0.5622   1.6447   1.6462   3.8161   5.9364   8.0505   8.0524  10.1545
    10.4518  12.4992

          k = 0.1250-0.3750-0.3750 (   998 PWs)   bands (ev):

    -0.5622   1.6441   1.6468   3.8161   5.9364   8.0497   8.0531  10.1545
    10.4518  12.4994

          k = 0.3750 0.1250-0.3750 (   998 PWs)   bands (ev):

    -0.5622   1.6451   1.6457   3.8161   5.9364   8.0511   8.0518  10.1545
    10.4518  12.4990

          k =-0.3750-0.1250-0.3750 (   998 PWs)   bands (ev):

    -0.5622   1.6449   1.6460   3.8161   5.9364   8.0506   8.0522  10.1545
    10.4518  12.4996

          k = 0.3750-0.1250 0.3750 (   998 PWs)   bands (ev):

    -0.5622   1.6449   1.6460   3.8161   5.9364   8.0506   8.0522  10.1545
    10.4518  12.4988

          k =-0.3750 0.1250 0.3750 (   998 PWs)   bands (ev):

    -0.5622   1.6451   1.6457   3.8161   5.9364   8.0511   8.0518  10.1545
    10.4518  12.4994

          k = 0.3750-0.3750 0.1250 (   998 PWs)   bands (ev):

    -0.5622   1.6447   1.6461   3.8161   5.9364   8.0505   8.0524  10.1545
    10.4518  12.4996

          k =-0.3750-0.3750-0.1250 (   998 PWs)   bands (ev):

    -0.5622   1.6439   1.6469   3.8161   5.9364   8.0495   8.0534  10.1545
    10.4518  12.4984

          k = 0.3750 0.3750-0.1250 (   998 PWs)   bands (ev):

    -0.5622   1.6439   1.6469   3.8161   5.9364   8.0495   8.0534  10.1545
    10.4518  12.4999

          k =-0.3750 0.3750 0.1250 (   998 PWs)   bands (ev):

    -0.5622   1.6447   1.6461   3.8161   5.9364   8.0505   8.0524  10.1545
    10.4518  12.4993

          k =-0.3750-0.3750 0.3750 (   991 PWs)   bands (ev):

     0.5469   2.7341   2.7359   2.7375   4.9115   4.9133   4.9150   7.0481
    15.5149  15.5177

          k =-0.3750 0.3750-0.3750 (   991 PWs)   bands (ev):

     0.5469   2.7347   2.7358   2.7370   4.9121   4.9133   4.9145   7.0481
    15.5165  15.5173

          k = 0.3750-0.3750-0.3750 (   991 PWs)   bands (ev):

     0.5469   2.7343   2.7359   2.7373   4.9117   4.9133   4.9148   7.0481
    15.5154  15.5178

     the Fermi energy is     8.0647 ev

!    total energy              =    -157.99396490 Ry
     Harris-Foulkes estimate   =    -157.99396509 Ry
     estimated scf accuracy    <       0.00000099 Ry

     total all-electron energy =     -1942.565087 Ry

     The total energy is the sum of the following terms:

     one-electron contribution =      12.67480420 Ry
     hartree contribution      =       0.02680976 Ry
     xc contribution           =     -10.36615578 Ry
     ewald contribution        =     -21.61650270 Ry
     one-center paw contrib.   =    -138.71119755 Ry
     smearing contrib. (-TS)   =      -0.00172283 Ry

     convergence has been achieved in   7 iterations

     Forces acting on atoms (cartesian axes, Ry/au):

     atom    1 type  1   force =     0.00007173   -0.00005585    0.00028073
     atom    2 type  1   force =    -0.00013183    0.00005893    0.00031600
     atom    3 type  1   force =    -0.00001346    0.00006119   -0.00038957
     atom    4 type  1   force =     0.00007356   -0.00006427   -0.00020717

     Total force =     0.000645     Total SCF correction =     0.000195
     SCF correction compared to forces is large: reduce conv_thr to get better values


     Computing stress (Cartesian axis) and pressure

          total   stress  (Ry/bohr**3)                   (kbar)     P=    1.54
   0.00001049  -0.00000001  -0.00000002          1.54     -0.00     -0.00
  -0.00000001   0.00001048   0.00000002         -0.00      1.54      0.00
  -0.00000002   0.00000002   0.00001045         -0.00      0.00      1.54


     Writing output data file fe_scf_fcc_2.save/

     init_run     :      0.20s CPU      0.22s WALL (       1 calls)
     electrons    :      2.04s CPU      2.16s WALL (       1 calls)
     forces       :      0.04s CPU      0.04s WALL (       1 calls)
     stress       :      0.08s CPU      0.08s WALL (       1 calls)

     Called by init_run:
     wfcinit      :      0.11s CPU      0.12s WALL (       1 calls)
     potinit      :      0.05s CPU      0.05s WALL (       1 calls)
     hinit0       :      0.04s CPU      0.04s WALL (       1 calls)

     Called by electrons:
     c_bands      :      1.47s CPU      1.56s WALL (       8 calls)
     sum_band     :      0.22s CPU      0.24s WALL (       8 calls)
     v_of_rho     :      0.02s CPU      0.02s WALL (       8 calls)
     newd         :      0.01s CPU      0.01s WALL (       8 calls)
     PAW_pot      :      0.36s CPU      0.36s WALL (       8 calls)
     mix_rho      :      0.00s CPU      0.00s WALL (       8 calls)

     Called by c_bands:
     init_us_2    :      0.04s CPU      0.04s WALL (     608 calls)
     cegterg      :      1.41s CPU      1.49s WALL (     256 calls)

     Called by sum_band:
     sum_band:bec :      0.00s CPU      0.00s WALL (     256 calls)
     addusdens    :      0.01s CPU      0.01s WALL (       8 calls)

     Called by *egterg:
     h_psi        :      1.04s CPU      1.12s WALL (     834 calls)
     s_psi        :      0.09s CPU      0.10s WALL (     834 calls)
     g_psi        :      0.01s CPU      0.01s WALL (     546 calls)
     cdiaghg      :      0.12s CPU      0.13s WALL (     770 calls)

     Called by h_psi:
     h_psi:pot    :      1.04s CPU      1.11s WALL (     834 calls)
     h_psi:calbec :      0.13s CPU      0.14s WALL (     834 calls)
     vloc_psi     :      0.82s CPU      0.88s WALL (     834 calls)
     add_vuspsi   :      0.09s CPU      0.10s WALL (     834 calls)

     General routines
     calbec       :      0.20s CPU      0.22s WALL (    1250 calls)
     fft          :      0.01s CPU      0.02s WALL (     128 calls)
     ffts         :      0.00s CPU      0.00s WALL (      16 calls)
     fftw         :      0.88s CPU      0.95s WALL (   16342 calls)
     interpolate  :      0.00s CPU      0.00s WALL (       8 calls)

     Parallel routines
     fft_scatt_xy :      0.12s CPU      0.13s WALL (   16486 calls)
     fft_scatt_yz :      0.39s CPU      0.42s WALL (   16486 calls)

     PWSCF        :      2.86s CPU      3.02s WALL


   This run was terminated on:   7:18: 5  11Mar2020            

=------------------------------------------------------------------------------=
   JOB DONE.
=------------------------------------------------------------------------------=
