
     Program PWSCF v.6.4.1 starts on  9Mar2020 at  6:56:34 

     This program is part of the open-source Quantum ESPRESSO suite
     for quantum simulation of materials; please cite
         "P. Giannozzi et al., J. Phys.:Condens. Matter 21 395502 (2009);
         "P. Giannozzi et al., J. Phys.:Condens. Matter 29 465901 (2017);
          URL http://www.quantum-espresso.org", 
     in publications or presentations arising from this work. More details at
     http://www.quantum-espresso.org/quote

     Parallel version (MPI), running on     4 processors

     MPI processes distributed on     1 nodes
     R & G space division:  proc/nbgrp/npool/nimage =       4
     Reading input from wd/kpoints/file_000108.in
Warning: card &IONS ignored
Warning: card ION_DYNAMICS = 'BFGS', ignored
Warning: card / ignored
Warning: card &CELL ignored
Warning: card CELL_DYNAMICS = 'BFGS', ignored
Warning: card CELL_FACTOR = 2.0, ignored
Warning: card PRESS = 0.0, ignored
Warning: card / ignored

     Current dimensions of program PWSCF are:
     Max number of different atomic species (ntypx) = 10
     Max number of k-points (npk) =  40000
     Max angular momentum in pseudopotentials (lmaxx) =  3
               file Al.pbe-nl-kjpaw_psl.1.0.0.UPF: wavefunction(s)  3S 3P renormalized

     Subspace diagonalization in iterative solution of the eigenvalue problem:
     a serial algorithm will be used


     Parallelization info
     --------------------
     sticks:   dense  smooth     PW     G-vecs:    dense   smooth      PW
     Min         187     187     58                 3817     3817     650
     Max         188     188     59                 3820     3820     651
     Sum         749     749    233                15275    15275    2601



     bravais-lattice index     =            0
     lattice parameter (alat)  =       7.6356  a.u.
     unit-cell volume          =     445.1737 (a.u.)^3
     number of atoms/cell      =            4
     number of atomic types    =            1
     number of electrons       =        12.00
     number of Kohn-Sham states=           10
     kinetic-energy cutoff     =      40.0000  Ry
     charge density cutoff     =     160.0000  Ry
     convergence threshold     =      1.0E-06
     mixing beta               =       0.1000
     number of iterations used =           10  TF        mixing
     Exchange-correlation      = SLA PW PBX PBC ( 1  4  3  4 0 0)

     celldm(1)=   7.635600  celldm(2)=   0.000000  celldm(3)=   0.000000
     celldm(4)=   0.000000  celldm(5)=   0.000000  celldm(6)=   0.000000

     crystal axes: (cart. coord. in units of alat)
               a(1) = (   1.000000   0.000000   0.000000 )  
               a(2) = (   0.000000   1.000000   0.000000 )  
               a(3) = (   0.000000   0.000000   1.000000 )  

     reciprocal axes: (cart. coord. in units 2 pi/alat)
               b(1) = (  1.000000  0.000000  0.000000 )  
               b(2) = (  0.000000  1.000000  0.000000 )  
               b(3) = (  0.000000  0.000000  1.000000 )  


     PseudoPot. # 1 for Al read from file:
     /opt/pp/Al.pbe-nl-kjpaw_psl.1.0.0.UPF
     MD5 check sum: 1b67f78b73fe58c7924490f171ce8a1e
     Pseudo is Projector augmented-wave + core cor, Zval =  3.0
     Generated using "atomic" code by A. Dal Corso v.6.3
     Shape of augmentation charge: PSQ
     Using radial grid of 1135 points,  4 beta functions with: 
                l(1) =   0
                l(2) =   0
                l(3) =   1
                l(4) =   1
     Q(r) pseudized with 0 coefficients 


     atomic species   valence    mass     pseudopotential
        Al             3.00    26.98200     Al( 1.00)

     No symmetry found



   Cartesian axes

     site n.     atom                  positions (alat units)
         1           Al  tau(   1) = (  -0.0000654   0.0000190   0.0001361  )
         2           Al  tau(   2) = (   0.5001592   0.4996200   0.0001406  )
         3           Al  tau(   3) = (   0.4998143   0.0000610   0.5005910  )
         4           Al  tau(   4) = (  -0.0000400   0.5004374   0.5003674  )

     number of k points=    63  Marzari-Vanderbilt smearing, width (Ry)=  0.0100
                       cart. coord. in units 2pi/alat
        k(    1) = (   0.1000000   0.1000000   0.1000000), wk =   0.0320000
        k(    2) = (   0.1000000   0.1000000   0.3000000), wk =   0.0320000
        k(    3) = (   0.1000000   0.1000000  -0.5000000), wk =   0.0320000
        k(    4) = (   0.1000000   0.3000000   0.3000000), wk =   0.0320000
        k(    5) = (   0.1000000   0.3000000  -0.5000000), wk =   0.0320000
        k(    6) = (   0.1000000  -0.5000000  -0.5000000), wk =   0.0320000
        k(    7) = (   0.3000000   0.3000000   0.3000000), wk =   0.0320000
        k(    8) = (   0.3000000   0.3000000  -0.5000000), wk =   0.0320000
        k(    9) = (   0.3000000  -0.5000000  -0.5000000), wk =   0.0320000
        k(   10) = (  -0.5000000  -0.5000000  -0.5000000), wk =   0.0160000
        k(   11) = (  -0.1000000  -0.1000000   0.1000000), wk =   0.0320000
        k(   12) = (  -0.1000000   0.1000000  -0.1000000), wk =   0.0320000
        k(   13) = (   0.1000000  -0.1000000  -0.1000000), wk =   0.0320000
        k(   14) = (  -0.1000000  -0.1000000   0.3000000), wk =   0.0320000
        k(   15) = (  -0.1000000   0.1000000  -0.3000000), wk =   0.0320000
        k(   16) = (   0.1000000  -0.1000000  -0.3000000), wk =   0.0320000
        k(   17) = (   0.3000000  -0.1000000   0.1000000), wk =   0.0320000
        k(   18) = (  -0.3000000  -0.1000000  -0.1000000), wk =   0.0320000
        k(   19) = (   0.3000000   0.1000000  -0.1000000), wk =   0.0320000
        k(   20) = (  -0.3000000   0.1000000   0.1000000), wk =   0.0320000
        k(   21) = (  -0.1000000   0.3000000   0.1000000), wk =   0.0320000
        k(   22) = (  -0.1000000  -0.3000000  -0.1000000), wk =   0.0320000
        k(   23) = (   0.1000000   0.3000000  -0.1000000), wk =   0.0320000
        k(   24) = (   0.1000000  -0.3000000   0.1000000), wk =   0.0320000
        k(   25) = (  -0.1000000   0.1000000   0.5000000), wk =   0.0320000
        k(   26) = (  -0.5000000  -0.1000000   0.1000000), wk =   0.0320000
        k(   27) = (   0.5000000  -0.1000000  -0.1000000), wk =   0.0320000
        k(   28) = (  -0.1000000  -0.5000000   0.1000000), wk =   0.0320000
        k(   29) = (  -0.1000000   0.5000000  -0.1000000), wk =   0.0320000
        k(   30) = (  -0.1000000  -0.3000000   0.3000000), wk =   0.0320000
        k(   31) = (  -0.1000000   0.3000000  -0.3000000), wk =   0.0320000
        k(   32) = (   0.1000000  -0.3000000  -0.3000000), wk =   0.0320000
        k(   33) = (   0.3000000   0.1000000  -0.3000000), wk =   0.0320000
        k(   34) = (  -0.3000000  -0.1000000  -0.3000000), wk =   0.0320000
        k(   35) = (   0.3000000  -0.1000000   0.3000000), wk =   0.0320000
        k(   36) = (  -0.3000000   0.1000000   0.3000000), wk =   0.0320000
        k(   37) = (   0.3000000  -0.3000000   0.1000000), wk =   0.0320000
        k(   38) = (  -0.3000000  -0.3000000  -0.1000000), wk =   0.0320000
        k(   39) = (   0.3000000   0.3000000  -0.1000000), wk =   0.0320000
        k(   40) = (  -0.3000000   0.3000000   0.1000000), wk =   0.0320000
        k(   41) = (  -0.1000000   0.3000000   0.5000000), wk =   0.0320000
        k(   42) = (   0.3000000   0.1000000   0.5000000), wk =   0.0320000
        k(   43) = (   0.3000000  -0.1000000  -0.5000000), wk =   0.0320000
        k(   44) = (  -0.5000000  -0.3000000   0.1000000), wk =   0.0320000
        k(   45) = (   0.5000000  -0.3000000  -0.1000000), wk =   0.0320000
        k(   46) = (  -0.1000000  -0.5000000   0.3000000), wk =   0.0320000
        k(   47) = (  -0.1000000   0.5000000  -0.3000000), wk =   0.0320000
        k(   48) = (   0.3000000  -0.5000000   0.1000000), wk =   0.0320000
        k(   49) = (   0.3000000   0.5000000  -0.1000000), wk =   0.0320000
        k(   50) = (  -0.5000000   0.1000000   0.3000000), wk =   0.0320000
        k(   51) = (   0.5000000  -0.1000000   0.3000000), wk =   0.0320000
        k(   52) = (  -0.5000000   0.1000000   0.5000000), wk =   0.0320000
        k(   53) = (  -0.5000000   0.5000000   0.1000000), wk =   0.0320000
        k(   54) = (  -0.3000000  -0.3000000   0.3000000), wk =   0.0320000
        k(   55) = (  -0.3000000   0.3000000  -0.3000000), wk =   0.0320000
        k(   56) = (   0.3000000  -0.3000000  -0.3000000), wk =   0.0320000
        k(   57) = (  -0.3000000   0.3000000   0.5000000), wk =   0.0320000
        k(   58) = (  -0.5000000  -0.3000000   0.3000000), wk =   0.0320000
        k(   59) = (   0.5000000  -0.3000000  -0.3000000), wk =   0.0320000
        k(   60) = (  -0.3000000  -0.5000000   0.3000000), wk =   0.0320000
        k(   61) = (  -0.3000000   0.5000000  -0.3000000), wk =   0.0320000
        k(   62) = (  -0.5000000   0.3000000   0.5000000), wk =   0.0320000
        k(   63) = (  -0.5000000   0.5000000   0.3000000), wk =   0.0320000

     Dense  grid:    15275 G-vectors     FFT dimensions: (  32,  32,  32)

     Estimated max dynamical RAM per process >      10.73 MB

     Estimated total dynamical RAM >      42.91 MB

     Initial potential from superposition of free atoms

     starting charge   11.99084, renormalised to   12.00000
     Starting wfcs are   16 randomized atomic wfcs
     Checking if some PAW data can be deallocated... 

     total cpu time spent up to now is        1.4 secs

     Self-consistent Calculation

     iteration #  1     ecut=    40.00 Ry     beta= 0.10
     Davidson diagonalization with overlap
     ethr =  1.00E-02,  avg # of iterations =  3.1

     Threshold (ethr) on eigenvalues was too large:
     Diagonalizing with lowered threshold

     Davidson diagonalization with overlap
     ethr =  1.97E-04,  avg # of iterations =  3.5

     total cpu time spent up to now is        3.5 secs

     total energy              =    -158.00441712 Ry
     Harris-Foulkes estimate   =    -158.00524132 Ry
     estimated scf accuracy    <       0.02298712 Ry

     iteration #  2     ecut=    40.00 Ry     beta= 0.10
     Davidson diagonalization with overlap
     ethr =  1.92E-04,  avg # of iterations =  1.0

     total cpu time spent up to now is        4.3 secs

     total energy              =    -157.99836462 Ry
     Harris-Foulkes estimate   =    -158.00453722 Ry
     estimated scf accuracy    <       0.01981638 Ry

     iteration #  3     ecut=    40.00 Ry     beta= 0.10
     Davidson diagonalization with overlap
     ethr =  1.65E-04,  avg # of iterations =  1.0

     total cpu time spent up to now is        5.0 secs

     total energy              =    -157.99870231 Ry
     Harris-Foulkes estimate   =    -157.99874625 Ry
     estimated scf accuracy    <       0.00009147 Ry

     iteration #  4     ecut=    40.00 Ry     beta= 0.10
     Davidson diagonalization with overlap
     ethr =  7.62E-07,  avg # of iterations =  4.5

     total cpu time spent up to now is        6.4 secs

     total energy              =    -157.99876489 Ry
     Harris-Foulkes estimate   =    -157.99877858 Ry
     estimated scf accuracy    <       0.00005555 Ry

     iteration #  5     ecut=    40.00 Ry     beta= 0.10
     Davidson diagonalization with overlap
     ethr =  4.63E-07,  avg # of iterations =  1.0

     total cpu time spent up to now is        7.2 secs

     total energy              =    -157.99872100 Ry
     Harris-Foulkes estimate   =    -157.99876619 Ry
     estimated scf accuracy    <       0.00004158 Ry

     iteration #  6     ecut=    40.00 Ry     beta= 0.10
     Davidson diagonalization with overlap
     ethr =  3.46E-07,  avg # of iterations =  2.0

     total cpu time spent up to now is        8.2 secs

     total energy              =    -157.99873107 Ry
     Harris-Foulkes estimate   =    -157.99873110 Ry
     estimated scf accuracy    <       0.00000101 Ry

     iteration #  7     ecut=    40.00 Ry     beta= 0.10
     Davidson diagonalization with overlap
     ethr =  8.42E-09,  avg # of iterations =  1.5

     total cpu time spent up to now is        9.0 secs

     End of self-consistent calculation

          k = 0.1000 0.1000 0.1000 (  1899 PWs)   bands (ev):

    -2.9618   4.0412   4.0433   4.0456   7.7411   7.7436   7.7460  10.7599
    10.7627  10.7655

          k = 0.1000 0.1000 0.3000 (  1906 PWs)   bands (ev):

    -2.2394   1.3153   4.7243   4.7275   8.0296   8.0355   8.5363   8.5368
    11.3559  11.7961

          k = 0.1000 0.1000-0.5000 (  1918 PWs)   bands (ev):

    -0.8089  -0.8023   5.9692   5.9700   6.2101   6.2111   9.5128   9.5133
    10.1733  10.1744

          k = 0.1000 0.3000 0.3000 (  1902 PWs)   bands (ev):

    -1.5206   2.0148   2.0178   5.3101   5.5756   8.7942   8.7983   9.1497
    12.1848  12.1917

          k = 0.1000 0.3000-0.5000 (  1890 PWs)   bands (ev):

    -0.0972  -0.0906   3.4037   3.4104   6.7762   6.7835  10.1395  10.1471
    10.4846  10.4908

          k = 0.1000-0.5000-0.5000 (  1908 PWs)   bands (ev):

     1.3152   1.3155   1.3218   1.3230   8.1277   8.1282   8.1353   8.1367
    11.8289  11.8325

          k = 0.3000 0.3000 0.3000 (  1914 PWs)   bands (ev):

    -0.8054   2.7111   2.7134   2.7158   6.1649   6.1674   6.1699   9.5497
    13.0703  13.0721

          k = 0.3000 0.3000-0.5000 (  1898 PWs)   bands (ev):

     0.6111   0.6178   3.9822   3.9829   4.2308   4.2318   7.5259   7.5330
    14.1697  14.5694

          k = 0.3000-0.5000-0.5000 (  1900 PWs)   bands (ev):

     2.0164   2.0168   2.0231   2.0242   5.4856   5.4860   5.4926   5.4937
    15.6210  15.6259

          k =-0.5000-0.5000-0.5000 (  1904 PWs)   bands (ev):

     3.3107   3.3110   3.3112   3.3118   3.5269   3.5281   3.5283   3.5288
    19.3102  19.3112

          k =-0.1000-0.1000 0.1000 (  1899 PWs)   bands (ev):

    -2.9618   4.0416   4.0434   4.0451   7.7416   7.7436   7.7455  10.7604
    10.7627  10.7649

          k =-0.1000 0.1000-0.1000 (  1899 PWs)   bands (ev):

    -2.9618   4.0421   4.0433   4.0446   7.7421   7.7436   7.7450  10.7611
    10.7627  10.7643

          k = 0.1000-0.1000-0.1000 (  1899 PWs)   bands (ev):

    -2.9618   4.0418   4.0434   4.0449   7.7418   7.7436   7.7453  10.7607
    10.7627  10.7647

          k =-0.1000-0.1000 0.3000 (  1906 PWs)   bands (ev):

    -2.2394   1.3153   4.7243   4.7275   8.0296   8.0355   8.5363   8.5368
    11.3559  11.7959

          k =-0.1000 0.1000-0.3000 (  1906 PWs)   bands (ev):

    -2.2394   1.3153   4.7252   4.7266   8.0312   8.0339   8.5364   8.5366
    11.3559  11.7962

          k = 0.1000-0.1000-0.3000 (  1906 PWs)   bands (ev):

    -2.2394   1.3153   4.7252   4.7266   8.0312   8.0339   8.5365   8.5367
    11.3559  11.7971

          k = 0.3000-0.1000 0.1000 (  1906 PWs)   bands (ev):

    -2.2394   1.3153   4.7251   4.7267   8.0312   8.0339   8.5364   8.5367
    11.3559  11.7963

          k =-0.3000-0.1000-0.1000 (  1906 PWs)   bands (ev):

    -2.2394   1.3153   4.7245   4.7273   8.0301   8.0351   8.5363   8.5368
    11.3559  11.7957

          k = 0.3000 0.1000-0.1000 (  1906 PWs)   bands (ev):

    -2.2394   1.3153   4.7251   4.7267   8.0312   8.0339   8.5364   8.5367
    11.3559  11.7956

          k =-0.3000 0.1000 0.1000 (  1906 PWs)   bands (ev):

    -2.2394   1.3153   4.7245   4.7273   8.0301   8.0350   8.5363   8.5368
    11.3559  11.7959

          k =-0.1000 0.3000 0.1000 (  1906 PWs)   bands (ev):

    -2.2394   1.3153   4.7257   4.7262   8.0321   8.0330   8.5365   8.5366
    11.3559  11.7954

          k =-0.1000-0.3000-0.1000 (  1906 PWs)   bands (ev):

    -2.2394   1.3153   4.7252   4.7266   8.0312   8.0339   8.5365   8.5366
    11.3559  11.7953

          k = 0.1000 0.3000-0.1000 (  1906 PWs)   bands (ev):

    -2.2394   1.3153   4.7257   4.7262   8.0321   8.0330   8.5365   8.5366
    11.3559  11.7952

          k = 0.1000-0.3000 0.1000 (  1906 PWs)   bands (ev):

    -2.2394   1.3153   4.7252   4.7266   8.0312   8.0339   8.5365   8.5366
    11.3559  11.7952

          k =-0.1000 0.1000 0.5000 (  1918 PWs)   bands (ev):

    -0.8089  -0.8023   5.9693   5.9699   6.2101   6.2111   9.5128   9.5133
    10.1733  10.1745

          k =-0.5000-0.1000 0.1000 (  1918 PWs)   bands (ev):

    -0.8061  -0.8051   5.9694   5.9699   6.2102   6.2109   9.5129   9.5133
    10.1734  10.1743

          k = 0.5000-0.1000-0.1000 (  1918 PWs)   bands (ev):

    -0.8061  -0.8051   5.9694   5.9699   6.2101   6.2109   9.5129   9.5132
    10.1734  10.1743

          k =-0.1000-0.5000 0.1000 (  1918 PWs)   bands (ev):

    -0.8058  -0.8054   5.9696   5.9698   6.2103   6.2107   9.5130   9.5132
    10.1736  10.1741

          k =-0.1000 0.5000-0.1000 (  1918 PWs)   bands (ev):

    -0.8058  -0.8054   5.9695   5.9698   6.2104   6.2107   9.5130   9.5132
    10.1737  10.1740

          k =-0.1000-0.3000 0.3000 (  1902 PWs)   bands (ev):

    -1.5206   2.0155   2.0171   5.3101   5.5756   8.7951   8.7974   9.1497
    12.1870  12.1903

          k =-0.1000 0.3000-0.3000 (  1902 PWs)   bands (ev):

    -1.5206   2.0155   2.0171   5.3101   5.5756   8.7951   8.7974   9.1497
    12.1868  12.1902

          k = 0.1000-0.3000-0.3000 (  1902 PWs)   bands (ev):

    -1.5206   2.0148   2.0178   5.3101   5.5756   8.7942   8.7983   9.1497
    12.1850  12.1912

          k = 0.3000 0.1000-0.3000 (  1902 PWs)   bands (ev):

    -1.5206   2.0160   2.0166   5.3101   5.5756   8.7959   8.7966   9.1497
    12.1881  12.1891

          k =-0.3000-0.1000-0.3000 (  1902 PWs)   bands (ev):

    -1.5206   2.0156   2.0170   5.3101   5.5756   8.7951   8.7973   9.1497
    12.1868  12.1896

          k = 0.3000-0.1000 0.3000 (  1902 PWs)   bands (ev):

    -1.5206   2.0156   2.0170   5.3101   5.5756   8.7951   8.7973   9.1497
    12.1869  12.1896

          k =-0.3000 0.1000 0.3000 (  1902 PWs)   bands (ev):

    -1.5206   2.0160   2.0166   5.3101   5.5756   8.7958   8.7966   9.1497
    12.1880  12.1892

          k = 0.3000-0.3000 0.1000 (  1902 PWs)   bands (ev):

    -1.5206   2.0155   2.0170   5.3101   5.5756   8.7951   8.7973   9.1497
    12.1870  12.1904

          k =-0.3000-0.3000-0.1000 (  1902 PWs)   bands (ev):

    -1.5206   2.0146   2.0180   5.3101   5.5756   8.7938   8.7986   9.1497
    12.1850  12.1922

          k = 0.3000 0.3000-0.1000 (  1902 PWs)   bands (ev):

    -1.5206   2.0146   2.0180   5.3101   5.5756   8.7938   8.7986   9.1497
    12.1849  12.1923

          k =-0.3000 0.3000 0.1000 (  1902 PWs)   bands (ev):

    -1.5206   2.0155   2.0171   5.3101   5.5756   8.7951   8.7973   9.1497
    12.1869  12.1904

          k =-0.1000 0.3000 0.5000 (  1890 PWs)   bands (ev):

    -0.0972  -0.0906   3.4037   3.4104   6.7762   6.7835  10.1395  10.1471
    10.4846  10.4908

          k = 0.3000 0.1000 0.5000 (  1890 PWs)   bands (ev):

    -0.0972  -0.0906   3.4037   3.4104   6.7762   6.7835  10.1395  10.1471
    10.4846  10.4908

          k = 0.3000-0.1000-0.5000 (  1890 PWs)   bands (ev):

    -0.0972  -0.0906   3.4037   3.4104   6.7762   6.7835  10.1395  10.1471
    10.4846  10.4908

          k =-0.5000-0.3000 0.1000 (  1890 PWs)   bands (ev):

    -0.0944  -0.0934   3.4066   3.4075   6.7793   6.7804  10.1428  10.1438
    10.4873  10.4881

          k = 0.5000-0.3000-0.1000 (  1890 PWs)   bands (ev):

    -0.0944  -0.0934   3.4066   3.4075   6.7793   6.7804  10.1428  10.1438
    10.4873  10.4882

          k =-0.1000-0.5000 0.3000 (  1890 PWs)   bands (ev):

    -0.0941  -0.0937   3.4068   3.4073   6.7796   6.7801  10.1430  10.1436
    10.4875  10.4879

          k =-0.1000 0.5000-0.3000 (  1890 PWs)   bands (ev):

    -0.0941  -0.0937   3.4068   3.4073   6.7796   6.7801  10.1431  10.1435
    10.4875  10.4879

          k = 0.3000-0.5000 0.1000 (  1890 PWs)   bands (ev):

    -0.0941  -0.0937   3.4068   3.4073   6.7796   6.7801  10.1431  10.1435
    10.4875  10.4879

          k = 0.3000 0.5000-0.1000 (  1890 PWs)   bands (ev):

    -0.0941  -0.0937   3.4068   3.4073   6.7796   6.7801  10.1430  10.1435
    10.4875  10.4880

          k =-0.5000 0.1000 0.3000 (  1890 PWs)   bands (ev):

    -0.0944  -0.0934   3.4066   3.4075   6.7793   6.7804  10.1427  10.1438
    10.4873  10.4882

          k = 0.5000-0.1000 0.3000 (  1890 PWs)   bands (ev):

    -0.0944  -0.0934   3.4066   3.4075   6.7793   6.7804  10.1428  10.1438
    10.4873  10.4881

          k =-0.5000 0.1000 0.5000 (  1908 PWs)   bands (ev):

     1.3152   1.3158   1.3216   1.3229   8.1279   8.1285   8.1349   8.1366
    11.8266  11.8311

          k =-0.5000 0.5000 0.1000 (  1908 PWs)   bands (ev):

     1.3171   1.3181   1.3195   1.3208   8.1296   8.1309   8.1329   8.1345
    11.8287  11.8299

          k =-0.3000-0.3000 0.3000 (  1914 PWs)   bands (ev):

    -0.8054   2.7116   2.7135   2.7153   6.1654   6.1674   6.1694   9.5497
    13.0709  13.0725

          k =-0.3000 0.3000-0.3000 (  1914 PWs)   bands (ev):

    -0.8054   2.7121   2.7134   2.7148   6.1660   6.1674   6.1689   9.5497
    13.0705  13.0725

          k = 0.3000-0.3000-0.3000 (  1914 PWs)   bands (ev):

    -0.8054   2.7118   2.7135   2.7151   6.1656   6.1674   6.1692   9.5497
    13.0703  13.0730

          k =-0.3000 0.3000 0.5000 (  1898 PWs)   bands (ev):

     0.6111   0.6178   3.9823   3.9829   4.2307   4.2318   7.5259   7.5330
    14.1697  14.5690

          k =-0.5000-0.3000 0.3000 (  1898 PWs)   bands (ev):

     0.6140   0.6149   3.9824   3.9829   4.2308   4.2316   7.5290   7.5300
    14.1697  14.5693

          k = 0.5000-0.3000-0.3000 (  1898 PWs)   bands (ev):

     0.6140   0.6149   3.9824   3.9829   4.2308   4.2316   7.5290   7.5300
    14.5682  14.5690

          k =-0.3000-0.5000 0.3000 (  1898 PWs)   bands (ev):

     0.6142   0.6147   3.9826   3.9827   4.2310   4.2314   7.5292   7.5297
    14.5685  14.5690

          k =-0.3000 0.5000-0.3000 (  1898 PWs)   bands (ev):

     0.6142   0.6147   3.9825   3.9828   4.2311   4.2314   7.5292   7.5297
    14.5679  14.5688

          k =-0.5000 0.3000 0.5000 (  1900 PWs)   bands (ev):

     2.0164   2.0171   2.0229   2.0242   5.4856   5.4863   5.4923   5.4937
    15.6216  15.6274

          k =-0.5000 0.5000 0.3000 (  1900 PWs)   bands (ev):

     2.0183   2.0194   2.0208   2.0220   5.4876   5.4887   5.4902   5.4915
    15.6223  15.6247

     the Fermi energy is     8.0609 ev

!    total energy              =    -157.99873101 Ry
     Harris-Foulkes estimate   =    -157.99873113 Ry
     estimated scf accuracy    <       0.00000097 Ry

     total all-electron energy =     -1942.569853 Ry

     The total energy is the sum of the following terms:

     one-electron contribution =      12.66487565 Ry
     hartree contribution      =       0.02369009 Ry
     xc contribution           =     -10.36228362 Ry
     ewald contribution        =     -21.61650270 Ry
     one-center paw contrib.   =    -138.70708162 Ry
     smearing contrib. (-TS)   =      -0.00142881 Ry

     convergence has been achieved in   7 iterations

     Forces acting on atoms (cartesian axes, Ry/au):

     atom    1 type  1   force =     0.00005500   -0.00004940    0.00014811
     atom    2 type  1   force =    -0.00012550    0.00008240    0.00016040
     atom    3 type  1   force =     0.00000848    0.00007165   -0.00023985
     atom    4 type  1   force =     0.00006202   -0.00010464   -0.00006867

     Total force =     0.000397     Total SCF correction =     0.000188
     SCF correction compared to forces is large: reduce conv_thr to get better values


     Computing stress (Cartesian axis) and pressure

          total   stress  (Ry/bohr**3)                   (kbar)     P=   -2.80
  -0.00001904  -0.00000000  -0.00000000         -2.80     -0.00     -0.00
  -0.00000000  -0.00001900   0.00000001         -0.00     -2.80      0.00
  -0.00000000   0.00000001  -0.00001909         -0.00      0.00     -2.81


     Writing output data file fe_scf_fcc_2.save/

     init_run     :      0.62s CPU      0.78s WALL (       1 calls)
     electrons    :      7.05s CPU      7.62s WALL (       1 calls)
     forces       :      0.17s CPU      0.20s WALL (       1 calls)
     stress       :      0.31s CPU      0.32s WALL (       1 calls)

     Called by init_run:
     wfcinit      :      0.48s CPU      0.63s WALL (       1 calls)
     potinit      :      0.07s CPU      0.07s WALL (       1 calls)
     hinit0       :      0.06s CPU      0.06s WALL (       1 calls)

     Called by electrons:
     c_bands      :      5.76s CPU      6.20s WALL (       8 calls)
     sum_band     :      0.89s CPU      1.01s WALL (       8 calls)
     v_of_rho     :      0.04s CPU      0.04s WALL (       8 calls)
     newd         :      0.03s CPU      0.03s WALL (       8 calls)
     PAW_pot      :      0.38s CPU      0.39s WALL (       8 calls)
     mix_rho      :      0.00s CPU      0.00s WALL (       8 calls)

     Called by c_bands:
     init_us_2    :      0.13s CPU      0.15s WALL (    1197 calls)
     cegterg      :      5.50s CPU      5.91s WALL (     504 calls)

     Called by sum_band:
     sum_band:bec :      0.00s CPU      0.00s WALL (     504 calls)
     addusdens    :      0.02s CPU      0.02s WALL (       8 calls)

     Called by *egterg:
     h_psi        :      4.08s CPU      4.47s WALL (    1677 calls)
     s_psi        :      0.34s CPU      0.37s WALL (    1677 calls)
     g_psi        :      0.02s CPU      0.02s WALL (    1110 calls)
     cdiaghg      :      0.29s CPU      0.32s WALL (    1551 calls)

     Called by h_psi:
     h_psi:pot    :      4.06s CPU      4.45s WALL (    1677 calls)
     h_psi:calbec :      0.57s CPU      0.61s WALL (    1677 calls)
     vloc_psi     :      3.15s CPU      3.46s WALL (    1677 calls)
     add_vuspsi   :      0.34s CPU      0.37s WALL (    1677 calls)

     General routines
     calbec       :      0.99s CPU      1.10s WALL (    2496 calls)
     fft          :      0.04s CPU      0.04s WALL (     114 calls)
     ffts         :      0.00s CPU      0.00s WALL (       8 calls)
     fftw         :      3.40s CPU      3.75s WALL (   32568 calls)

     Parallel routines
     fft_scatt_xy :      0.47s CPU      0.52s WALL (   32690 calls)
     fft_scatt_yz :      1.81s CPU      2.00s WALL (   32690 calls)

     PWSCF        :      8.70s CPU      9.62s WALL


   This run was terminated on:   6:56:43   9Mar2020            

=------------------------------------------------------------------------------=
   JOB DONE.
=------------------------------------------------------------------------------=
