
     Program PWSCF v.6.4.1 starts on 11Mar2020 at  7:17:50 

     This program is part of the open-source Quantum ESPRESSO suite
     for quantum simulation of materials; please cite
         "P. Giannozzi et al., J. Phys.:Condens. Matter 21 395502 (2009);
         "P. Giannozzi et al., J. Phys.:Condens. Matter 29 465901 (2017);
          URL http://www.quantum-espresso.org", 
     in publications or presentations arising from this work. More details at
     http://www.quantum-espresso.org/quote

     Parallel version (MPI), running on     4 processors

     MPI processes distributed on     1 nodes
     R & G space division:  proc/nbgrp/npool/nimage =       4
     Reading input from wd/kpoints/file_000152.in
Warning: card &IONS ignored
Warning: card ION_DYNAMICS = 'BFGS', ignored
Warning: card / ignored
Warning: card &CELL ignored
Warning: card CELL_DYNAMICS = 'BFGS', ignored
Warning: card CELL_FACTOR = 2.0, ignored
Warning: card PRESS = 0.0, ignored
Warning: card / ignored

     Current dimensions of program PWSCF are:
     Max number of different atomic species (ntypx) = 10
     Max number of k-points (npk) =  40000
     Max angular momentum in pseudopotentials (lmaxx) =  3
               file Al.pbe-nl-kjpaw_psl.1.0.0.UPF: wavefunction(s)  3S 3P renormalized

     Subspace diagonalization in iterative solution of the eigenvalue problem:
     a serial algorithm will be used


     Parallelization info
     --------------------
     sticks:   dense  smooth     PW     G-vecs:    dense   smooth      PW
     Min         121     121     36                 2047     2006     338
     Max         124     124     37                 2058     2007     341
     Sum         489     489    145                 8217     8025    1357



     bravais-lattice index     =            0
     lattice parameter (alat)  =       7.6356  a.u.
     unit-cell volume          =     445.1737 (a.u.)^3
     number of atoms/cell      =            4
     number of atomic types    =            1
     number of electrons       =        12.00
     number of Kohn-Sham states=           10
     kinetic-energy cutoff     =      26.0000  Ry
     charge density cutoff     =     105.0000  Ry
     convergence threshold     =      1.0E-06
     mixing beta               =       0.1000
     number of iterations used =           10  TF        mixing
     Exchange-correlation      = SLA PW PBX PBC ( 1  4  3  4 0 0)

     celldm(1)=   7.635600  celldm(2)=   0.000000  celldm(3)=   0.000000
     celldm(4)=   0.000000  celldm(5)=   0.000000  celldm(6)=   0.000000

     crystal axes: (cart. coord. in units of alat)
               a(1) = (   1.000000   0.000000   0.000000 )  
               a(2) = (   0.000000   1.000000   0.000000 )  
               a(3) = (   0.000000   0.000000   1.000000 )  

     reciprocal axes: (cart. coord. in units 2 pi/alat)
               b(1) = (  1.000000  0.000000  0.000000 )  
               b(2) = (  0.000000  1.000000  0.000000 )  
               b(3) = (  0.000000  0.000000  1.000000 )  


     PseudoPot. # 1 for Al read from file:
     /opt/pp/Al.pbe-nl-kjpaw_psl.1.0.0.UPF
     MD5 check sum: 1b67f78b73fe58c7924490f171ce8a1e
     Pseudo is Projector augmented-wave + core cor, Zval =  3.0
     Generated using "atomic" code by A. Dal Corso v.6.3
     Shape of augmentation charge: PSQ
     Using radial grid of 1135 points,  4 beta functions with: 
                l(1) =   0
                l(2) =   0
                l(3) =   1
                l(4) =   1
     Q(r) pseudized with 0 coefficients 


     atomic species   valence    mass     pseudopotential
        Al             3.00    26.98200     Al( 1.00)

     No symmetry found



   Cartesian axes

     site n.     atom                  positions (alat units)
         1           Al  tau(   1) = (  -0.0000654   0.0000190   0.0001361  )
         2           Al  tau(   2) = (   0.5001592   0.4996200   0.0001406  )
         3           Al  tau(   3) = (   0.4998143   0.0000610   0.5005910  )
         4           Al  tau(   4) = (  -0.0000400   0.5004374   0.5003674  )

     number of k points=    32  Marzari-Vanderbilt smearing, width (Ry)=  0.0010
                       cart. coord. in units 2pi/alat
        k(    1) = (   0.1250000   0.1250000   0.1250000), wk =   0.0625000
        k(    2) = (   0.1250000   0.1250000   0.3750000), wk =   0.0625000
        k(    3) = (   0.1250000   0.3750000   0.3750000), wk =   0.0625000
        k(    4) = (   0.3750000   0.3750000   0.3750000), wk =   0.0625000
        k(    5) = (  -0.1250000  -0.1250000   0.1250000), wk =   0.0625000
        k(    6) = (  -0.1250000   0.1250000  -0.1250000), wk =   0.0625000
        k(    7) = (   0.1250000  -0.1250000  -0.1250000), wk =   0.0625000
        k(    8) = (  -0.1250000  -0.1250000   0.3750000), wk =   0.0625000
        k(    9) = (  -0.1250000   0.1250000  -0.3750000), wk =   0.0625000
        k(   10) = (   0.1250000  -0.1250000  -0.3750000), wk =   0.0625000
        k(   11) = (   0.3750000  -0.1250000   0.1250000), wk =   0.0625000
        k(   12) = (  -0.3750000  -0.1250000  -0.1250000), wk =   0.0625000
        k(   13) = (   0.3750000   0.1250000  -0.1250000), wk =   0.0625000
        k(   14) = (  -0.3750000   0.1250000   0.1250000), wk =   0.0625000
        k(   15) = (  -0.1250000   0.3750000   0.1250000), wk =   0.0625000
        k(   16) = (  -0.1250000  -0.3750000  -0.1250000), wk =   0.0625000
        k(   17) = (   0.1250000   0.3750000  -0.1250000), wk =   0.0625000
        k(   18) = (   0.1250000  -0.3750000   0.1250000), wk =   0.0625000
        k(   19) = (  -0.1250000  -0.3750000   0.3750000), wk =   0.0625000
        k(   20) = (  -0.1250000   0.3750000  -0.3750000), wk =   0.0625000
        k(   21) = (   0.1250000  -0.3750000  -0.3750000), wk =   0.0625000
        k(   22) = (   0.3750000   0.1250000  -0.3750000), wk =   0.0625000
        k(   23) = (  -0.3750000  -0.1250000  -0.3750000), wk =   0.0625000
        k(   24) = (   0.3750000  -0.1250000   0.3750000), wk =   0.0625000
        k(   25) = (  -0.3750000   0.1250000   0.3750000), wk =   0.0625000
        k(   26) = (   0.3750000  -0.3750000   0.1250000), wk =   0.0625000
        k(   27) = (  -0.3750000  -0.3750000  -0.1250000), wk =   0.0625000
        k(   28) = (   0.3750000   0.3750000  -0.1250000), wk =   0.0625000
        k(   29) = (  -0.3750000   0.3750000   0.1250000), wk =   0.0625000
        k(   30) = (  -0.3750000  -0.3750000   0.3750000), wk =   0.0625000
        k(   31) = (  -0.3750000   0.3750000  -0.3750000), wk =   0.0625000
        k(   32) = (   0.3750000  -0.3750000  -0.3750000), wk =   0.0625000

     Dense  grid:     8217 G-vectors     FFT dimensions: (  25,  25,  25)

     Smooth grid:     8025 G-vectors     FFT dimensions: (  25,  25,  25)

     Estimated max dynamical RAM per process >       4.63 MB

     Estimated total dynamical RAM >      18.50 MB

     Initial potential from superposition of free atoms

     starting charge   11.99084, renormalised to   12.00000
     Starting wfcs are   16 randomized atomic wfcs
     Checking if some PAW data can be deallocated... 

     total cpu time spent up to now is        0.7 secs

     Self-consistent Calculation

     iteration #  1     ecut=    26.00 Ry     beta= 0.10
     Davidson diagonalization with overlap
     ethr =  1.00E-02,  avg # of iterations =  3.1

     Threshold (ethr) on eigenvalues was too large:
     Diagonalizing with lowered threshold

     Davidson diagonalization with overlap
     ethr =  1.97E-04,  avg # of iterations =  3.1

     total cpu time spent up to now is        1.2 secs

     total energy              =    -157.99778710 Ry
     Harris-Foulkes estimate   =    -157.99854251 Ry
     estimated scf accuracy    <       0.02295582 Ry

     iteration #  2     ecut=    26.00 Ry     beta= 0.10
     Davidson diagonalization with overlap
     ethr =  1.91E-04,  avg # of iterations =  1.0

     total cpu time spent up to now is        1.5 secs

     total energy              =    -157.99218121 Ry
     Harris-Foulkes estimate   =    -157.99789457 Ry
     estimated scf accuracy    <       0.01977159 Ry

     iteration #  3     ecut=    26.00 Ry     beta= 0.10
     Davidson diagonalization with overlap
     ethr =  1.65E-04,  avg # of iterations =  1.0

     total cpu time spent up to now is        1.7 secs

     total energy              =    -157.99249901 Ry
     Harris-Foulkes estimate   =    -157.99255116 Ry
     estimated scf accuracy    <       0.00022432 Ry

     iteration #  4     ecut=    26.00 Ry     beta= 0.10
     Davidson diagonalization with overlap
     ethr =  1.87E-06,  avg # of iterations =  4.1

     total cpu time spent up to now is        2.1 secs

     total energy              =    -157.99250509 Ry
     Harris-Foulkes estimate   =    -157.99256059 Ry
     estimated scf accuracy    <       0.00015377 Ry

     iteration #  5     ecut=    26.00 Ry     beta= 0.10
     Davidson diagonalization with overlap
     ethr =  1.28E-06,  avg # of iterations =  1.0

     total cpu time spent up to now is        2.3 secs

     total energy              =    -157.99248726 Ry
     Harris-Foulkes estimate   =    -157.99252052 Ry
     estimated scf accuracy    <       0.00005462 Ry

     iteration #  6     ecut=    26.00 Ry     beta= 0.10
     Davidson diagonalization with overlap
     ethr =  4.55E-07,  avg # of iterations =  1.0

     total cpu time spent up to now is        2.5 secs

     total energy              =    -157.99248789 Ry
     Harris-Foulkes estimate   =    -157.99248932 Ry
     estimated scf accuracy    <       0.00001168 Ry

     iteration #  7     ecut=    26.00 Ry     beta= 0.10
     Davidson diagonalization with overlap
     ethr =  9.73E-08,  avg # of iterations =  2.0

     total cpu time spent up to now is        2.8 secs

     total energy              =    -157.99248928 Ry
     Harris-Foulkes estimate   =    -157.99248966 Ry
     estimated scf accuracy    <       0.00000303 Ry

     iteration #  8     ecut=    26.00 Ry     beta= 0.10
     Davidson diagonalization with overlap
     ethr =  2.52E-08,  avg # of iterations =  2.1

     total cpu time spent up to now is        3.0 secs

     total energy              =    -157.99249010 Ry
     Harris-Foulkes estimate   =    -157.99248994 Ry
     estimated scf accuracy    <       0.00000100 Ry

     iteration #  9     ecut=    26.00 Ry     beta= 0.10
     Davidson diagonalization with overlap
     ethr =  8.34E-09,  avg # of iterations =  1.0

     total cpu time spent up to now is        3.3 secs

     End of self-consistent calculation

          k = 0.1250 0.1250 0.1250 (   991 PWs)   bands (ev):

    -2.8060   3.7802   3.7808   3.7814   8.2884   8.2895   8.2906  10.1294
    10.1302  10.1310

          k = 0.1250 0.1250 0.3750 (   990 PWs)   bands (ev):

    -1.6799   0.5448   4.8483   4.8492   6.9841   6.9855   9.3749   9.3752
    11.1431  11.5426

          k = 0.1250 0.3750 0.3750 (   998 PWs)   bands (ev):

    -0.5626   1.6446   1.6455   3.8157   5.9360   8.0502   8.0519  10.1541
    10.4513  12.4988

          k = 0.3750 0.3750 0.3750 (   991 PWs)   bands (ev):

     0.5465   2.7348   2.7355   2.7361   4.9121   4.9129   4.9136   7.0477
    15.5159  15.5179

          k =-0.1250-0.1250 0.1250 (   991 PWs)   bands (ev):

    -2.8060   3.7803   3.7808   3.7813   8.2886   8.2895   8.2904  10.1295
    10.1302  10.1309

          k =-0.1250 0.1250-0.1250 (   991 PWs)   bands (ev):

    -2.8060   3.7804   3.7808   3.7811   8.2889   8.2895   8.2902  10.1297
    10.1302  10.1307

          k = 0.1250-0.1250-0.1250 (   991 PWs)   bands (ev):

    -2.8060   3.7803   3.7808   3.7812   8.2887   8.2895   8.2903  10.1296
    10.1302  10.1308

          k =-0.1250-0.1250 0.3750 (   990 PWs)   bands (ev):

    -1.6799   0.5448   4.8483   4.8492   6.9841   6.9855   9.3749   9.3752
    11.1431  11.5421

          k =-0.1250 0.1250-0.3750 (   990 PWs)   bands (ev):

    -1.6799   0.5448   4.8485   4.8490   6.9845   6.9851   9.3750   9.3751
    11.1431  11.5424

          k = 0.1250-0.1250-0.3750 (   990 PWs)   bands (ev):

    -1.6799   0.5448   4.8485   4.8490   6.9845   6.9851   9.3750   9.3751
    11.1431  11.5424

          k = 0.3750-0.1250 0.1250 (   990 PWs)   bands (ev):

    -1.6799   0.5448   4.8485   4.8490   6.9845   6.9852   9.3750   9.3751
    11.1431  11.5423

          k =-0.3750-0.1250-0.1250 (   990 PWs)   bands (ev):

    -1.6799   0.5448   4.8484   4.8492   6.9842   6.9854   9.3749   9.3752
    11.1431  11.5420

          k = 0.3750 0.1250-0.1250 (   990 PWs)   bands (ev):

    -1.6799   0.5448   4.8485   4.8490   6.9845   6.9852   9.3750   9.3751
    11.1431  11.5423

          k =-0.3750 0.1250 0.1250 (   990 PWs)   bands (ev):

    -1.6799   0.5448   4.8484   4.8492   6.9842   6.9854   9.3749   9.3752
    11.1431  11.5425

          k =-0.1250 0.3750 0.1250 (   990 PWs)   bands (ev):

    -1.6799   0.5448   4.8487   4.8489   6.9847   6.9849   9.3750   9.3751
    11.1431  11.5424

          k =-0.1250-0.3750-0.1250 (   990 PWs)   bands (ev):

    -1.6799   0.5448   4.8486   4.8490   6.9845   6.9851   9.3750   9.3751
    11.1431  11.5422

          k = 0.1250 0.3750-0.1250 (   990 PWs)   bands (ev):

    -1.6799   0.5448   4.8487   4.8489   6.9847   6.9849   9.3750   9.3751
    11.1431  11.5424

          k = 0.1250-0.3750 0.1250 (   990 PWs)   bands (ev):

    -1.6799   0.5448   4.8486   4.8490   6.9845   6.9851   9.3750   9.3751
    11.1431  11.5422

          k =-0.1250-0.3750 0.3750 (   998 PWs)   bands (ev):

    -0.5626   1.6448   1.6453   3.8157   5.9360   8.0506   8.0515  10.1541
    10.4513  12.4988

          k =-0.1250 0.3750-0.3750 (   998 PWs)   bands (ev):

    -0.5626   1.6448   1.6453   3.8157   5.9360   8.0506   8.0515  10.1541
    10.4513  12.4987

          k = 0.1250-0.3750-0.3750 (   998 PWs)   bands (ev):

    -0.5626   1.6446   1.6455   3.8157   5.9360   8.0502   8.0519  10.1541
    10.4513  12.4987

          k = 0.3750 0.1250-0.3750 (   998 PWs)   bands (ev):

    -0.5626   1.6450   1.6451   3.8157   5.9360   8.0509   8.0512  10.1541
    10.4513  12.4987

          k =-0.3750-0.1250-0.3750 (   998 PWs)   bands (ev):

    -0.5626   1.6448   1.6453   3.8157   5.9360   8.0506   8.0515  10.1541
    10.4513  12.4988

          k = 0.3750-0.1250 0.3750 (   998 PWs)   bands (ev):

    -0.5626   1.6448   1.6453   3.8157   5.9360   8.0506   8.0515  10.1541
    10.4513  12.4986

          k =-0.3750 0.1250 0.3750 (   998 PWs)   bands (ev):

    -0.5626   1.6450   1.6451   3.8157   5.9360   8.0509   8.0512  10.1541
    10.4513  12.4987

          k = 0.3750-0.3750 0.1250 (   998 PWs)   bands (ev):

    -0.5626   1.6448   1.6453   3.8157   5.9360   8.0506   8.0515  10.1541
    10.4513  12.4988

          k =-0.3750-0.3750-0.1250 (   998 PWs)   bands (ev):

    -0.5626   1.6445   1.6455   3.8157   5.9360   8.0501   8.0520  10.1541
    10.4513  12.4985

          k = 0.3750 0.3750-0.1250 (   998 PWs)   bands (ev):

    -0.5626   1.6445   1.6455   3.8157   5.9360   8.0501   8.0520  10.1541
    10.4513  12.4989

          k =-0.3750 0.3750 0.1250 (   998 PWs)   bands (ev):

    -0.5626   1.6448   1.6453   3.8157   5.9360   8.0506   8.0515  10.1541
    10.4514  12.4987

          k =-0.3750-0.3750 0.3750 (   991 PWs)   bands (ev):

     0.5465   2.7349   2.7355   2.7360   4.9123   4.9129   4.9135   7.0477
    15.5156  15.5170

          k =-0.3750 0.3750-0.3750 (   991 PWs)   bands (ev):

     0.5465   2.7351   2.7355   2.7359   4.9125   4.9129   4.9133   7.0477
    15.5163  15.5167

          k = 0.3750-0.3750-0.3750 (   991 PWs)   bands (ev):

     0.5465   2.7350   2.7355   2.7359   4.9123   4.9129   4.9134   7.0477
    15.5159  15.5169

     the Fermi energy is     8.0529 ev

!    total energy              =    -157.99249012 Ry
     Harris-Foulkes estimate   =    -157.99249019 Ry
     estimated scf accuracy    <       0.00000016 Ry

     total all-electron energy =     -1942.563612 Ry

     The total energy is the sum of the following terms:

     one-electron contribution =      12.67499442 Ry
     hartree contribution      =       0.02681613 Ry
     xc contribution           =     -10.36625449 Ry
     ewald contribution        =     -21.61650270 Ry
     one-center paw contrib.   =    -138.71129847 Ry
     smearing contrib. (-TS)   =      -0.00024501 Ry

     convergence has been achieved in   9 iterations

     Forces acting on atoms (cartesian axes, Ry/au):

     atom    1 type  1   force =     0.00003263   -0.00004224    0.00030880
     atom    2 type  1   force =     0.00013953   -0.00045956    0.00034465
     atom    3 type  1   force =    -0.00022777    0.00002692   -0.00023187
     atom    4 type  1   force =     0.00005561    0.00047488   -0.00042157

     Total force =     0.000980     Total SCF correction =     0.000051


     Computing stress (Cartesian axis) and pressure

          total   stress  (Ry/bohr**3)                   (kbar)     P=    1.65
   0.00001134  -0.00000013  -0.00000007          1.67     -0.02     -0.01
  -0.00000013   0.00001123   0.00000004         -0.02      1.65      0.01
  -0.00000007   0.00000004   0.00001107         -0.01      0.01      1.63


     Writing output data file fe_scf_fcc_2.save/

     init_run     :      0.21s CPU      0.23s WALL (       1 calls)
     electrons    :      2.39s CPU      2.61s WALL (       1 calls)
     forces       :      0.04s CPU      0.04s WALL (       1 calls)
     stress       :      0.07s CPU      0.08s WALL (       1 calls)

     Called by init_run:
     wfcinit      :      0.11s CPU      0.13s WALL (       1 calls)
     potinit      :      0.05s CPU      0.05s WALL (       1 calls)
     hinit0       :      0.04s CPU      0.05s WALL (       1 calls)

     Called by electrons:
     c_bands      :      1.70s CPU      1.86s WALL (      10 calls)
     sum_band     :      0.27s CPU      0.30s WALL (      10 calls)
     v_of_rho     :      0.03s CPU      0.03s WALL (      10 calls)
     newd         :      0.02s CPU      0.02s WALL (      10 calls)
     PAW_pot      :      0.41s CPU      0.44s WALL (      10 calls)
     mix_rho      :      0.00s CPU      0.00s WALL (      10 calls)

     Called by c_bands:
     init_us_2    :      0.04s CPU      0.04s WALL (     736 calls)
     cegterg      :      1.62s CPU      1.78s WALL (     320 calls)

     Called by sum_band:
     sum_band:bec :      0.00s CPU      0.00s WALL (     320 calls)
     addusdens    :      0.01s CPU      0.01s WALL (      10 calls)

     Called by *egterg:
     h_psi        :      1.21s CPU      1.32s WALL (     973 calls)
     s_psi        :      0.09s CPU      0.10s WALL (     973 calls)
     g_psi        :      0.00s CPU      0.00s WALL (     621 calls)
     cdiaghg      :      0.14s CPU      0.15s WALL (     909 calls)

     Called by h_psi:
     h_psi:pot    :      1.20s CPU      1.32s WALL (     973 calls)
     h_psi:calbec :      0.14s CPU      0.16s WALL (     973 calls)
     vloc_psi     :      0.96s CPU      1.05s WALL (     973 calls)
     add_vuspsi   :      0.09s CPU      0.10s WALL (     973 calls)

     General routines
     calbec       :      0.23s CPU      0.26s WALL (    1453 calls)
     fft          :      0.02s CPU      0.02s WALL (     154 calls)
     ffts         :      0.00s CPU      0.00s WALL (      20 calls)
     fftw         :      1.05s CPU      1.15s WALL (   19376 calls)
     interpolate  :      0.00s CPU      0.00s WALL (      10 calls)

     Parallel routines
     fft_scatt_xy :      0.12s CPU      0.14s WALL (   19550 calls)
     fft_scatt_yz :      0.52s CPU      0.57s WALL (   19550 calls)

     PWSCF        :      3.15s CPU      3.42s WALL


   This run was terminated on:   7:17:54  11Mar2020            

=------------------------------------------------------------------------------=
   JOB DONE.
=------------------------------------------------------------------------------=
