
     Program PWSCF v.6.4.1 starts on 11Mar2020 at 16:46:41 

     This program is part of the open-source Quantum ESPRESSO suite
     for quantum simulation of materials; please cite
         "P. Giannozzi et al., J. Phys.:Condens. Matter 21 395502 (2009);
         "P. Giannozzi et al., J. Phys.:Condens. Matter 29 465901 (2017);
          URL http://www.quantum-espresso.org", 
     in publications or presentations arising from this work. More details at
     http://www.quantum-espresso.org/quote

     Parallel version (MPI), running on     4 processors

     MPI processes distributed on     1 nodes
     R & G space division:  proc/nbgrp/npool/nimage =       4
     Reading input from wd/kpoints/file_000262.in
Warning: card &IONS ignored
Warning: card ION_DYNAMICS = 'BFGS', ignored
Warning: card / ignored
Warning: card &CELL ignored
Warning: card CELL_DYNAMICS = 'BFGS', ignored
Warning: card CELL_FACTOR = 2.0, ignored
Warning: card PRESS = 0.0, ignored
Warning: card / ignored

     Current dimensions of program PWSCF are:
     Max number of different atomic species (ntypx) = 10
     Max number of k-points (npk) =  40000
     Max angular momentum in pseudopotentials (lmaxx) =  3
               file Al.pbe-nl-kjpaw_psl.1.0.0.UPF: wavefunction(s)  3S 3P renormalized

     Subspace diagonalization in iterative solution of the eigenvalue problem:
     a serial algorithm will be used


     Parallelization info
     --------------------
     sticks:   dense  smooth     PW     G-vecs:    dense   smooth      PW
     Min         121     121     36                 2046     2006     354
     Max         124     124     38                 2068     2007     357
     Sum         489     489    149                 8217     8025    1419



     bravais-lattice index     =            0
     lattice parameter (alat)  =       7.6356  a.u.
     unit-cell volume          =     445.1737 (a.u.)^3
     number of atoms/cell      =            4
     number of atomic types    =            1
     number of electrons       =        12.00
     number of Kohn-Sham states=           10
     kinetic-energy cutoff     =      26.0000  Ry
     charge density cutoff     =     105.0000  Ry
     convergence threshold     =      1.0E-06
     mixing beta               =       0.1000
     number of iterations used =           10  TF        mixing
     Exchange-correlation      = SLA PW PBX PBC ( 1  4  3  4 0 0)

     celldm(1)=   7.635600  celldm(2)=   0.000000  celldm(3)=   0.000000
     celldm(4)=   0.000000  celldm(5)=   0.000000  celldm(6)=   0.000000

     crystal axes: (cart. coord. in units of alat)
               a(1) = (   1.000000   0.000000   0.000000 )  
               a(2) = (   0.000000   1.000000   0.000000 )  
               a(3) = (   0.000000   0.000000   1.000000 )  

     reciprocal axes: (cart. coord. in units 2 pi/alat)
               b(1) = (  1.000000  0.000000  0.000000 )  
               b(2) = (  0.000000  1.000000  0.000000 )  
               b(3) = (  0.000000  0.000000  1.000000 )  


     PseudoPot. # 1 for Al read from file:
     /opt/pp/Al.pbe-nl-kjpaw_psl.1.0.0.UPF
     MD5 check sum: 1b67f78b73fe58c7924490f171ce8a1e
     Pseudo is Projector augmented-wave + core cor, Zval =  3.0
     Generated using "atomic" code by A. Dal Corso v.6.3
     Shape of augmentation charge: PSQ
     Using radial grid of 1135 points,  4 beta functions with: 
                l(1) =   0
                l(2) =   0
                l(3) =   1
                l(4) =   1
     Q(r) pseudized with 0 coefficients 


     atomic species   valence    mass     pseudopotential
        Al             3.00    26.98200     Al( 1.00)

     No symmetry found



   Cartesian axes

     site n.     atom                  positions (alat units)
         1           Al  tau(   1) = (  -0.0000654   0.0000190   0.0001361  )
         2           Al  tau(   2) = (   0.5001592   0.4996200   0.0001406  )
         3           Al  tau(   3) = (   0.4998143   0.0000610   0.5005910  )
         4           Al  tau(   4) = (  -0.0000400   0.5004374   0.5003674  )

     number of k points=  1688  Marzari-Vanderbilt smearing, width (Ry)=  0.0010

     Number of k-points >= 100: set verbosity='high' to print them.

     Dense  grid:     8217 G-vectors     FFT dimensions: (  25,  25,  25)

     Smooth grid:     8025 G-vectors     FFT dimensions: (  25,  25,  25)

     Estimated max dynamical RAM per process >      67.54 MB

     Estimated total dynamical RAM >     270.15 MB

     Initial potential from superposition of free atoms

     starting charge   11.99084, renormalised to   12.00000
     Starting wfcs are   16 randomized atomic wfcs
     Checking if some PAW data can be deallocated... 

     total cpu time spent up to now is        4.6 secs

     Self-consistent Calculation

     iteration #  1     ecut=    26.00 Ry     beta= 0.10
     Davidson diagonalization with overlap
     ethr =  1.00E-02,  avg # of iterations =  3.4

     Threshold (ethr) on eigenvalues was too large:
     Diagonalizing with lowered threshold

     Davidson diagonalization with overlap
     ethr =  1.92E-04,  avg # of iterations =  3.3

     total cpu time spent up to now is       22.4 secs

     total energy              =    -158.01479813 Ry
     Harris-Foulkes estimate   =    -158.01558445 Ry
     estimated scf accuracy    <       0.02236724 Ry

     iteration #  2     ecut=    26.00 Ry     beta= 0.10
     Davidson diagonalization with overlap
     ethr =  1.86E-04,  avg # of iterations =  1.0

     total cpu time spent up to now is       28.5 secs

     total energy              =    -158.00899786 Ry
     Harris-Foulkes estimate   =    -158.01490384 Ry
     estimated scf accuracy    <       0.01927270 Ry

     iteration #  3     ecut=    26.00 Ry     beta= 0.10
     Davidson diagonalization with overlap
     ethr =  1.61E-04,  avg # of iterations =  1.0

     total cpu time spent up to now is       34.6 secs

     total energy              =    -158.00930266 Ry
     Harris-Foulkes estimate   =    -158.00934635 Ry
     estimated scf accuracy    <       0.00009170 Ry

     iteration #  4     ecut=    26.00 Ry     beta= 0.10
     Davidson diagonalization with overlap
     ethr =  7.64E-07,  avg # of iterations =  4.2

     total cpu time spent up to now is       45.7 secs

     total energy              =    -158.00935697 Ry
     Harris-Foulkes estimate   =    -158.00937056 Ry
     estimated scf accuracy    <       0.00005382 Ry

     iteration #  5     ecut=    26.00 Ry     beta= 0.10
     Davidson diagonalization with overlap
     ethr =  4.48E-07,  avg # of iterations =  1.0

     total cpu time spent up to now is       51.8 secs

     total energy              =    -158.00931623 Ry
     Harris-Foulkes estimate   =    -158.00935838 Ry
     estimated scf accuracy    <       0.00004153 Ry

     iteration #  6     ecut=    26.00 Ry     beta= 0.10
     Davidson diagonalization with overlap
     ethr =  3.46E-07,  avg # of iterations =  2.0

     total cpu time spent up to now is       59.6 secs

     End of self-consistent calculation

     Number of k-points >= 100: set verbosity='high' to print the bands.

     the Fermi energy is     7.9228 ev

!    total energy              =    -158.00932514 Ry
     Harris-Foulkes estimate   =    -158.00932549 Ry
     estimated scf accuracy    <       0.00000092 Ry

     total all-electron energy =     -1942.580447 Ry

     The total energy is the sum of the following terms:

     one-electron contribution =      12.65818322 Ry
     hartree contribution      =       0.02436455 Ry
     xc contribution           =     -10.36437928 Ry
     ewald contribution        =     -21.61650270 Ry
     one-center paw contrib.   =    -138.71099399 Ry
     smearing contrib. (-TS)   =       0.00000306 Ry

     convergence has been achieved in   6 iterations

     Forces acting on atoms (cartesian axes, Ry/au):

     atom    1 type  1   force =     0.00006779   -0.00005035    0.00025701
     atom    2 type  1   force =    -0.00019885    0.00024569    0.00025647
     atom    3 type  1   force =     0.00006386    0.00005528   -0.00037798
     atom    4 type  1   force =     0.00006720   -0.00025062   -0.00013550

     Total force =     0.000689     Total SCF correction =     0.000242
     SCF correction compared to forces is large: reduce conv_thr to get better values


     Computing stress (Cartesian axis) and pressure

          total   stress  (Ry/bohr**3)                   (kbar)     P=   -0.35
  -0.00000238   0.00000001   0.00000001         -0.35      0.00      0.00
   0.00000001  -0.00000237   0.00000000          0.00     -0.35      0.00
   0.00000001   0.00000000  -0.00000236          0.00      0.00     -0.35


     Writing output data file fe_scf_fcc_2.save/

     init_run     :      3.92s CPU      4.30s WALL (       1 calls)
     electrons    :     50.53s CPU     54.93s WALL (       1 calls)
     forces       :      0.88s CPU      0.90s WALL (       1 calls)
     stress       :      1.70s CPU      1.70s WALL (       1 calls)

     Called by init_run:
     wfcinit      :      3.83s CPU      4.20s WALL (       1 calls)
     potinit      :      0.03s CPU      0.04s WALL (       1 calls)
     hinit0       :      0.06s CPU      0.06s WALL (       1 calls)

     Called by electrons:
     c_bands      :     44.10s CPU     47.78s WALL (       7 calls)
     sum_band     :      6.22s CPU      6.93s WALL (       7 calls)
     v_of_rho     :      0.01s CPU      0.01s WALL (       7 calls)
     newd         :      0.01s CPU      0.01s WALL (       7 calls)
     PAW_pot      :      0.22s CPU      0.22s WALL (       7 calls)
     mix_rho      :      0.00s CPU      0.00s WALL (       7 calls)

     Called by c_bands:
     init_us_2    :      1.04s CPU      1.13s WALL (   28696 calls)
     cegterg      :     42.48s CPU     46.05s WALL (   11816 calls)

     Called by sum_band:
     sum_band:bec :      0.04s CPU      0.05s WALL (   11816 calls)
     addusdens    :      0.01s CPU      0.01s WALL (       7 calls)

     Called by *egterg:
     h_psi        :     32.39s CPU     35.17s WALL (   40320 calls)
     s_psi        :      2.26s CPU      2.47s WALL (   40320 calls)
     g_psi        :      0.15s CPU      0.17s WALL (   26816 calls)
     cdiaghg      :      4.58s CPU      4.95s WALL (   36944 calls)

     Called by h_psi:
     h_psi:pot    :     32.30s CPU     35.07s WALL (   40320 calls)
     h_psi:calbec :      3.34s CPU      3.63s WALL (   40320 calls)
     vloc_psi     :     26.65s CPU     28.92s WALL (   40320 calls)
     add_vuspsi   :      2.27s CPU      2.47s WALL (   40320 calls)

     General routines
     calbec       :      5.34s CPU      5.79s WALL (   60576 calls)
     fft          :      0.01s CPU      0.01s WALL (     115 calls)
     ffts         :      0.00s CPU      0.00s WALL (      14 calls)
     fftw         :     28.88s CPU     31.47s WALL (  774232 calls)
     interpolate  :      0.00s CPU      0.00s WALL (       7 calls)

     Parallel routines
     fft_scatt_xy :      3.25s CPU      3.54s WALL (  774361 calls)
     fft_scatt_yz :     14.51s CPU     15.99s WALL (  774361 calls)

     PWSCF        :     57.85s CPU   1m 2.91s WALL


   This run was terminated on:  16:47:44  11Mar2020            

=------------------------------------------------------------------------------=
   JOB DONE.
=------------------------------------------------------------------------------=
