
     Program PWSCF v.6.4.1 starts on 11Mar2020 at  7:18:28 

     This program is part of the open-source Quantum ESPRESSO suite
     for quantum simulation of materials; please cite
         "P. Giannozzi et al., J. Phys.:Condens. Matter 21 395502 (2009);
         "P. Giannozzi et al., J. Phys.:Condens. Matter 29 465901 (2017);
          URL http://www.quantum-espresso.org", 
     in publications or presentations arising from this work. More details at
     http://www.quantum-espresso.org/quote

     Parallel version (MPI), running on     4 processors

     MPI processes distributed on     1 nodes
     R & G space division:  proc/nbgrp/npool/nimage =       4
     Reading input from wd/kpoints/file_000172.in
Warning: card &IONS ignored
Warning: card ION_DYNAMICS = 'BFGS', ignored
Warning: card / ignored
Warning: card &CELL ignored
Warning: card CELL_DYNAMICS = 'BFGS', ignored
Warning: card CELL_FACTOR = 2.0, ignored
Warning: card PRESS = 0.0, ignored
Warning: card / ignored

     Current dimensions of program PWSCF are:
     Max number of different atomic species (ntypx) = 10
     Max number of k-points (npk) =  40000
     Max angular momentum in pseudopotentials (lmaxx) =  3
               file Al.pbe-nl-kjpaw_psl.1.0.0.UPF: wavefunction(s)  3S 3P renormalized

     Subspace diagonalization in iterative solution of the eigenvalue problem:
     a serial algorithm will be used


     Parallelization info
     --------------------
     sticks:   dense  smooth     PW     G-vecs:    dense   smooth      PW
     Min         121     121     36                 2047     2006     338
     Max         124     124     37                 2058     2007     341
     Sum         489     489    145                 8217     8025    1357



     bravais-lattice index     =            0
     lattice parameter (alat)  =       7.6356  a.u.
     unit-cell volume          =     445.1737 (a.u.)^3
     number of atoms/cell      =            4
     number of atomic types    =            1
     number of electrons       =        12.00
     number of Kohn-Sham states=           10
     kinetic-energy cutoff     =      26.0000  Ry
     charge density cutoff     =     105.0000  Ry
     convergence threshold     =      1.0E-06
     mixing beta               =       0.1000
     number of iterations used =           10  TF        mixing
     Exchange-correlation      = SLA PW PBX PBC ( 1  4  3  4 0 0)

     celldm(1)=   7.635600  celldm(2)=   0.000000  celldm(3)=   0.000000
     celldm(4)=   0.000000  celldm(5)=   0.000000  celldm(6)=   0.000000

     crystal axes: (cart. coord. in units of alat)
               a(1) = (   1.000000   0.000000   0.000000 )  
               a(2) = (   0.000000   1.000000   0.000000 )  
               a(3) = (   0.000000   0.000000   1.000000 )  

     reciprocal axes: (cart. coord. in units 2 pi/alat)
               b(1) = (  1.000000  0.000000  0.000000 )  
               b(2) = (  0.000000  1.000000  0.000000 )  
               b(3) = (  0.000000  0.000000  1.000000 )  


     PseudoPot. # 1 for Al read from file:
     /opt/pp/Al.pbe-nl-kjpaw_psl.1.0.0.UPF
     MD5 check sum: 1b67f78b73fe58c7924490f171ce8a1e
     Pseudo is Projector augmented-wave + core cor, Zval =  3.0
     Generated using "atomic" code by A. Dal Corso v.6.3
     Shape of augmentation charge: PSQ
     Using radial grid of 1135 points,  4 beta functions with: 
                l(1) =   0
                l(2) =   0
                l(3) =   1
                l(4) =   1
     Q(r) pseudized with 0 coefficients 


     atomic species   valence    mass     pseudopotential
        Al             3.00    26.98200     Al( 1.00)

     No symmetry found



   Cartesian axes

     site n.     atom                  positions (alat units)
         1           Al  tau(   1) = (  -0.0000654   0.0000190   0.0001361  )
         2           Al  tau(   2) = (   0.5001592   0.4996200   0.0001406  )
         3           Al  tau(   3) = (   0.4998143   0.0000610   0.5005910  )
         4           Al  tau(   4) = (  -0.0000400   0.5004374   0.5003674  )

     number of k points=   108  Marzari-Vanderbilt smearing, width (Ry)=  0.0010

     Number of k-points >= 100: set verbosity='high' to print them.

     Dense  grid:     8217 G-vectors     FFT dimensions: (  25,  25,  25)

     Smooth grid:     8025 G-vectors     FFT dimensions: (  25,  25,  25)

     Estimated max dynamical RAM per process >       7.51 MB

     Estimated total dynamical RAM >      30.05 MB

     Initial potential from superposition of free atoms

     starting charge   11.99084, renormalised to   12.00000
     Starting wfcs are   16 randomized atomic wfcs
     Checking if some PAW data can be deallocated... 

     total cpu time spent up to now is        1.0 secs

     Self-consistent Calculation

     iteration #  1     ecut=    26.00 Ry     beta= 0.10
     Davidson diagonalization with overlap
     ethr =  1.00E-02,  avg # of iterations =  3.9

     Threshold (ethr) on eigenvalues was too large:
     Diagonalizing with lowered threshold

     Davidson diagonalization with overlap
     ethr =  1.95E-04,  avg # of iterations =  3.3

     total cpu time spent up to now is        2.9 secs

     total energy              =    -158.01233462 Ry
     Harris-Foulkes estimate   =    -158.01311371 Ry
     estimated scf accuracy    <       0.02274221 Ry

     iteration #  2     ecut=    26.00 Ry     beta= 0.10
     Davidson diagonalization with overlap
     ethr =  1.90E-04,  avg # of iterations =  1.0

     total cpu time spent up to now is        3.5 secs

     total energy              =    -158.00656844 Ry
     Harris-Foulkes estimate   =    -158.01243974 Ry
     estimated scf accuracy    <       0.01958991 Ry

     iteration #  3     ecut=    26.00 Ry     beta= 0.10
     Davidson diagonalization with overlap
     ethr =  1.63E-04,  avg # of iterations =  1.0

     total cpu time spent up to now is        4.2 secs

     total energy              =    -158.00687209 Ry
     Harris-Foulkes estimate   =    -158.00691749 Ry
     estimated scf accuracy    <       0.00010434 Ry

     iteration #  4     ecut=    26.00 Ry     beta= 0.10
     Davidson diagonalization with overlap
     ethr =  8.69E-07,  avg # of iterations =  3.9

     total cpu time spent up to now is        5.3 secs

     total energy              =    -158.00692067 Ry
     Harris-Foulkes estimate   =    -158.00693828 Ry
     estimated scf accuracy    <       0.00006329 Ry

     iteration #  5     ecut=    26.00 Ry     beta= 0.10
     Davidson diagonalization with overlap
     ethr =  5.27E-07,  avg # of iterations =  1.0

     total cpu time spent up to now is        5.9 secs

     total energy              =    -158.00687653 Ry
     Harris-Foulkes estimate   =    -158.00692253 Ry
     estimated scf accuracy    <       0.00004583 Ry

     iteration #  6     ecut=    26.00 Ry     beta= 0.10
     Davidson diagonalization with overlap
     ethr =  3.82E-07,  avg # of iterations =  2.0

     total cpu time spent up to now is        6.7 secs

     total energy              =    -158.00688555 Ry
     Harris-Foulkes estimate   =    -158.00688521 Ry
     estimated scf accuracy    <       0.00000259 Ry

     iteration #  7     ecut=    26.00 Ry     beta= 0.10
     Davidson diagonalization with overlap
     ethr =  2.15E-08,  avg # of iterations =  1.0

     total cpu time spent up to now is        7.4 secs

     total energy              =    -158.00688686 Ry
     Harris-Foulkes estimate   =    -158.00688562 Ry
     estimated scf accuracy    <       0.00000240 Ry

     iteration #  8     ecut=    26.00 Ry     beta= 0.10
     Davidson diagonalization with overlap
     ethr =  2.00E-08,  avg # of iterations =  2.0

     total cpu time spent up to now is        8.1 secs

     End of self-consistent calculation

     Number of k-points >= 100: set verbosity='high' to print the bands.

     the Fermi energy is     7.8577 ev

!    total energy              =    -158.00688737 Ry
     Harris-Foulkes estimate   =    -158.00688724 Ry
     estimated scf accuracy    <       0.00000014 Ry

     total all-electron energy =     -1942.578009 Ry

     The total energy is the sum of the following terms:

     one-electron contribution =      12.65993240 Ry
     hartree contribution      =       0.02528473 Ry
     xc contribution           =     -10.36480051 Ry
     ewald contribution        =     -21.61650270 Ry
     one-center paw contrib.   =    -138.71072765 Ry
     smearing contrib. (-TS)   =      -0.00007364 Ry

     convergence has been achieved in   8 iterations

     Forces acting on atoms (cartesian axes, Ry/au):

     atom    1 type  1   force =     0.00004508   -0.00002687    0.00029804
     atom    2 type  1   force =    -0.00003939   -0.00004093    0.00031272
     atom    3 type  1   force =    -0.00005497    0.00001492   -0.00031758
     atom    4 type  1   force =     0.00004928    0.00005288   -0.00029318

     Total force =     0.000623     Total SCF correction =     0.000050


     Computing stress (Cartesian axis) and pressure

          total   stress  (Ry/bohr**3)                   (kbar)     P=   -1.52
  -0.00001048   0.00000004   0.00000000         -1.54      0.01      0.00
   0.00000004  -0.00000995   0.00000004          0.01     -1.46      0.01
   0.00000000   0.00000004  -0.00001067          0.00      0.01     -1.57


     Writing output data file fe_scf_fcc_2.save/

     init_run     :      0.47s CPU      0.52s WALL (       1 calls)
     electrons    :      6.56s CPU      7.10s WALL (       1 calls)
     forces       :      0.11s CPU      0.12s WALL (       1 calls)
     stress       :      0.20s CPU      0.20s WALL (       1 calls)

     Called by init_run:
     wfcinit      :      0.37s CPU      0.41s WALL (       1 calls)
     potinit      :      0.05s CPU      0.06s WALL (       1 calls)
     hinit0       :      0.05s CPU      0.05s WALL (       1 calls)

     Called by electrons:
     c_bands      :      5.40s CPU      5.83s WALL (       9 calls)
     sum_band     :      0.78s CPU      0.87s WALL (       9 calls)
     v_of_rho     :      0.02s CPU      0.02s WALL (       9 calls)
     newd         :      0.01s CPU      0.02s WALL (       9 calls)
     PAW_pot      :      0.38s CPU      0.40s WALL (       9 calls)
     mix_rho      :      0.00s CPU      0.00s WALL (       9 calls)

     Called by c_bands:
     init_us_2    :      0.12s CPU      0.13s WALL (    2268 calls)
     cegterg      :      5.17s CPU      5.59s WALL (     972 calls)

     Called by sum_band:
     sum_band:bec :      0.01s CPU      0.01s WALL (     972 calls)
     addusdens    :      0.01s CPU      0.01s WALL (       9 calls)

     Called by *egterg:
     h_psi        :      3.81s CPU      4.12s WALL (    3152 calls)
     s_psi        :      0.31s CPU      0.34s WALL (    3152 calls)
     g_psi        :      0.02s CPU      0.02s WALL (    2072 calls)
     cdiaghg      :      0.46s CPU      0.49s WALL (    2936 calls)

     Called by h_psi:
     h_psi:pot    :      3.80s CPU      4.11s WALL (    3152 calls)
     h_psi:calbec :      0.47s CPU      0.51s WALL (    3152 calls)
     vloc_psi     :      3.01s CPU      3.25s WALL (    3152 calls)
     add_vuspsi   :      0.31s CPU      0.34s WALL (    3152 calls)

     General routines
     calbec       :      0.75s CPU      0.81s WALL (    4664 calls)
     fft          :      0.02s CPU      0.02s WALL (     141 calls)
     ffts         :      0.00s CPU      0.00s WALL (      18 calls)
     fftw         :      3.24s CPU      3.52s WALL (   61050 calls)
     interpolate  :      0.00s CPU      0.00s WALL (       9 calls)

     Parallel routines
     fft_scatt_xy :      0.41s CPU      0.44s WALL (   61209 calls)
     fft_scatt_yz :      1.48s CPU      1.62s WALL (   61209 calls)

     PWSCF        :      7.88s CPU      8.51s WALL


   This run was terminated on:   7:18:36  11Mar2020            

=------------------------------------------------------------------------------=
   JOB DONE.
=------------------------------------------------------------------------------=
