
     Program PWSCF v.6.4.1 starts on 11Mar2020 at  7:22:13 

     This program is part of the open-source Quantum ESPRESSO suite
     for quantum simulation of materials; please cite
         "P. Giannozzi et al., J. Phys.:Condens. Matter 21 395502 (2009);
         "P. Giannozzi et al., J. Phys.:Condens. Matter 29 465901 (2017);
          URL http://www.quantum-espresso.org", 
     in publications or presentations arising from this work. More details at
     http://www.quantum-espresso.org/quote

     Parallel version (MPI), running on     4 processors

     MPI processes distributed on     1 nodes
     R & G space division:  proc/nbgrp/npool/nimage =       4
     Reading input from wd/kpoints/file_000201.in
Warning: card &IONS ignored
Warning: card ION_DYNAMICS = 'BFGS', ignored
Warning: card / ignored
Warning: card &CELL ignored
Warning: card CELL_DYNAMICS = 'BFGS', ignored
Warning: card CELL_FACTOR = 2.0, ignored
Warning: card PRESS = 0.0, ignored
Warning: card / ignored

     Current dimensions of program PWSCF are:
     Max number of different atomic species (ntypx) = 10
     Max number of k-points (npk) =  40000
     Max angular momentum in pseudopotentials (lmaxx) =  3
               file Al.pbe-nl-kjpaw_psl.1.0.0.UPF: wavefunction(s)  3S 3P renormalized

     Subspace diagonalization in iterative solution of the eigenvalue problem:
     a serial algorithm will be used


     Parallelization info
     --------------------
     sticks:   dense  smooth     PW     G-vecs:    dense   smooth      PW
     Min         121     121     36                 2051     2006     340
     Max         124     124     37                 2058     2007     343
     Sum         489     489    145                 8217     8025    1365



     bravais-lattice index     =            0
     lattice parameter (alat)  =       7.6356  a.u.
     unit-cell volume          =     445.1737 (a.u.)^3
     number of atoms/cell      =            4
     number of atomic types    =            1
     number of electrons       =        12.00
     number of Kohn-Sham states=           10
     kinetic-energy cutoff     =      26.0000  Ry
     charge density cutoff     =     105.0000  Ry
     convergence threshold     =      1.0E-06
     mixing beta               =       0.1000
     number of iterations used =           10  TF        mixing
     Exchange-correlation      = SLA PW PBX PBC ( 1  4  3  4 0 0)

     celldm(1)=   7.635600  celldm(2)=   0.000000  celldm(3)=   0.000000
     celldm(4)=   0.000000  celldm(5)=   0.000000  celldm(6)=   0.000000

     crystal axes: (cart. coord. in units of alat)
               a(1) = (   1.000000   0.000000   0.000000 )  
               a(2) = (   0.000000   1.000000   0.000000 )  
               a(3) = (   0.000000   0.000000   1.000000 )  

     reciprocal axes: (cart. coord. in units 2 pi/alat)
               b(1) = (  1.000000  0.000000  0.000000 )  
               b(2) = (  0.000000  1.000000  0.000000 )  
               b(3) = (  0.000000  0.000000  1.000000 )  


     PseudoPot. # 1 for Al read from file:
     /opt/pp/Al.pbe-nl-kjpaw_psl.1.0.0.UPF
     MD5 check sum: 1b67f78b73fe58c7924490f171ce8a1e
     Pseudo is Projector augmented-wave + core cor, Zval =  3.0
     Generated using "atomic" code by A. Dal Corso v.6.3
     Shape of augmentation charge: PSQ
     Using radial grid of 1135 points,  4 beta functions with: 
                l(1) =   0
                l(2) =   0
                l(3) =   1
                l(4) =   1
     Q(r) pseudized with 0 coefficients 


     atomic species   valence    mass     pseudopotential
        Al             3.00    26.98200     Al( 1.00)

     No symmetry found



   Cartesian axes

     site n.     atom                  positions (alat units)
         1           Al  tau(   1) = (  -0.0000654   0.0000190   0.0001361  )
         2           Al  tau(   2) = (   0.5001592   0.4996200   0.0001406  )
         3           Al  tau(   3) = (   0.4998143   0.0000610   0.5005910  )
         4           Al  tau(   4) = (  -0.0000400   0.5004374   0.5003674  )

     number of k points=   256  Marzari-Vanderbilt smearing, width (Ry)=  0.0500

     Number of k-points >= 100: set verbosity='high' to print them.

     Dense  grid:     8217 G-vectors     FFT dimensions: (  25,  25,  25)

     Smooth grid:     8025 G-vectors     FFT dimensions: (  25,  25,  25)

     Estimated max dynamical RAM per process >      13.13 MB

     Estimated total dynamical RAM >      52.53 MB

     Initial potential from superposition of free atoms

     starting charge   11.99084, renormalised to   12.00000
     Starting wfcs are   16 randomized atomic wfcs
     Checking if some PAW data can be deallocated... 

     total cpu time spent up to now is        1.6 secs

     Self-consistent Calculation

     iteration #  1     ecut=    26.00 Ry     beta= 0.10
     Davidson diagonalization with overlap
     ethr =  1.00E-02,  avg # of iterations =  3.3

     Threshold (ethr) on eigenvalues was too large:
     Diagonalizing with lowered threshold

     Davidson diagonalization with overlap
     ethr =  1.94E-04,  avg # of iterations =  3.7

     total cpu time spent up to now is        6.2 secs

     total energy              =    -158.01546031 Ry
     Harris-Foulkes estimate   =    -158.01625053 Ry
     estimated scf accuracy    <       0.02257260 Ry

     iteration #  2     ecut=    26.00 Ry     beta= 0.10
     Davidson diagonalization with overlap
     ethr =  1.88E-04,  avg # of iterations =  1.0

     total cpu time spent up to now is        7.7 secs

     total energy              =    -158.00957564 Ry
     Harris-Foulkes estimate   =    -158.01555302 Ry
     estimated scf accuracy    <       0.01947274 Ry

     iteration #  3     ecut=    26.00 Ry     beta= 0.10
     Davidson diagonalization with overlap
     ethr =  1.62E-04,  avg # of iterations =  1.0

     total cpu time spent up to now is        9.2 secs

     total energy              =    -158.00990732 Ry
     Harris-Foulkes estimate   =    -158.00994169 Ry
     estimated scf accuracy    <       0.00007880 Ry

     iteration #  4     ecut=    26.00 Ry     beta= 0.10
     Davidson diagonalization with overlap
     ethr =  6.57E-07,  avg # of iterations =  3.8

     total cpu time spent up to now is       12.0 secs

     total energy              =    -158.00996098 Ry
     Harris-Foulkes estimate   =    -158.00997423 Ry
     estimated scf accuracy    <       0.00005402 Ry

     iteration #  5     ecut=    26.00 Ry     beta= 0.10
     Davidson diagonalization with overlap
     ethr =  4.50E-07,  avg # of iterations =  1.0

     total cpu time spent up to now is       13.5 secs

     total energy              =    -158.00992172 Ry
     Harris-Foulkes estimate   =    -158.00996231 Ry
     estimated scf accuracy    <       0.00004013 Ry

     iteration #  6     ecut=    26.00 Ry     beta= 0.10
     Davidson diagonalization with overlap
     ethr =  3.34E-07,  avg # of iterations =  2.0

     total cpu time spent up to now is       15.5 secs

     End of self-consistent calculation

     Number of k-points >= 100: set verbosity='high' to print the bands.

     the Fermi energy is     7.8901 ev

!    total energy              =    -158.00993081 Ry
     Harris-Foulkes estimate   =    -158.00993102 Ry
     estimated scf accuracy    <       0.00000091 Ry

     total all-electron energy =     -1942.581053 Ry

     The total energy is the sum of the following terms:

     one-electron contribution =      12.65563754 Ry
     hartree contribution      =       0.02447573 Ry
     xc contribution           =     -10.36412476 Ry
     ewald contribution        =     -21.61650270 Ry
     one-center paw contrib.   =    -138.71048151 Ry
     smearing contrib. (-TS)   =       0.00106489 Ry

     convergence has been achieved in   6 iterations

     Forces acting on atoms (cartesian axes, Ry/au):

     atom    1 type  1   force =     0.00006645   -0.00004900    0.00023764
     atom    2 type  1   force =    -0.00019502    0.00023875    0.00023821
     atom    3 type  1   force =     0.00006346    0.00005689   -0.00035824
     atom    4 type  1   force =     0.00006511   -0.00024664   -0.00011761

     Total force =     0.000655     Total SCF correction =     0.000237
     SCF correction compared to forces is large: reduce conv_thr to get better values


     Computing stress (Cartesian axis) and pressure

          total   stress  (Ry/bohr**3)                   (kbar)     P=   -2.01
  -0.00001368   0.00000001   0.00000001         -2.01      0.00      0.00
   0.00000001  -0.00001368   0.00000000          0.00     -2.01      0.00
   0.00000001   0.00000000  -0.00001366          0.00      0.00     -2.01


     Writing output data file fe_scf_fcc_2.save/

     init_run     :      1.03s CPU      1.12s WALL (       1 calls)
     electrons    :     12.80s CPU     13.85s WALL (       1 calls)
     forces       :      0.25s CPU      0.26s WALL (       1 calls)
     stress       :      0.44s CPU      0.46s WALL (       1 calls)

     Called by init_run:
     wfcinit      :      0.93s CPU      1.01s WALL (       1 calls)
     potinit      :      0.05s CPU      0.05s WALL (       1 calls)
     hinit0       :      0.04s CPU      0.05s WALL (       1 calls)

     Called by electrons:
     c_bands      :     10.99s CPU     11.87s WALL (       7 calls)
     sum_band     :      1.51s CPU      1.66s WALL (       7 calls)
     v_of_rho     :      0.02s CPU      0.02s WALL (       7 calls)
     newd         :      0.01s CPU      0.01s WALL (       7 calls)
     PAW_pot      :      0.31s CPU      0.32s WALL (       7 calls)
     mix_rho      :      0.00s CPU      0.00s WALL (       7 calls)

     Called by c_bands:
     init_us_2    :      0.25s CPU      0.27s WALL (    4352 calls)
     cegterg      :     10.55s CPU     11.40s WALL (    1792 calls)

     Called by sum_band:
     sum_band:bec :      0.01s CPU      0.01s WALL (    1792 calls)
     addusdens    :      0.01s CPU      0.01s WALL (       7 calls)

     Called by *egterg:
     h_psi        :      7.77s CPU      8.42s WALL (    6108 calls)
     s_psi        :      0.61s CPU      0.66s WALL (    6108 calls)
     g_psi        :      0.03s CPU      0.03s WALL (    4060 calls)
     cdiaghg      :      1.03s CPU      1.10s WALL (    5596 calls)

     Called by h_psi:
     h_psi:pot    :      7.75s CPU      8.40s WALL (    6108 calls)
     h_psi:calbec :      0.93s CPU      1.02s WALL (    6108 calls)
     vloc_psi     :      6.20s CPU      6.71s WALL (    6108 calls)
     add_vuspsi   :      0.61s CPU      0.66s WALL (    6108 calls)

     General routines
     calbec       :      1.52s CPU      1.64s WALL (    9180 calls)
     fft          :      0.01s CPU      0.01s WALL (     115 calls)
     ffts         :      0.00s CPU      0.00s WALL (      14 calls)
     fftw         :      6.64s CPU      7.21s WALL (  119412 calls)
     interpolate  :      0.00s CPU      0.00s WALL (       7 calls)

     Parallel routines
     fft_scatt_xy :      0.78s CPU      0.85s WALL (  119541 calls)
     fft_scatt_yz :      3.20s CPU      3.49s WALL (  119541 calls)

     PWSCF        :     15.09s CPU     16.34s WALL


   This run was terminated on:   7:22:29  11Mar2020            

=------------------------------------------------------------------------------=
   JOB DONE.
=------------------------------------------------------------------------------=
