
     Program PWSCF v.6.4.1 starts on 11Mar2020 at  7:19:37 

     This program is part of the open-source Quantum ESPRESSO suite
     for quantum simulation of materials; please cite
         "P. Giannozzi et al., J. Phys.:Condens. Matter 21 395502 (2009);
         "P. Giannozzi et al., J. Phys.:Condens. Matter 29 465901 (2017);
          URL http://www.quantum-espresso.org", 
     in publications or presentations arising from this work. More details at
     http://www.quantum-espresso.org/quote

     Parallel version (MPI), running on     4 processors

     MPI processes distributed on     1 nodes
     R & G space division:  proc/nbgrp/npool/nimage =       4
     Reading input from wd/kpoints/file_000181.in
Warning: card &IONS ignored
Warning: card ION_DYNAMICS = 'BFGS', ignored
Warning: card / ignored
Warning: card &CELL ignored
Warning: card CELL_DYNAMICS = 'BFGS', ignored
Warning: card CELL_FACTOR = 2.0, ignored
Warning: card PRESS = 0.0, ignored
Warning: card / ignored

     Current dimensions of program PWSCF are:
     Max number of different atomic species (ntypx) = 10
     Max number of k-points (npk) =  40000
     Max angular momentum in pseudopotentials (lmaxx) =  3
               file Al.pbe-nl-kjpaw_psl.1.0.0.UPF: wavefunction(s)  3S 3P renormalized

     Subspace diagonalization in iterative solution of the eigenvalue problem:
     a serial algorithm will be used


     Parallelization info
     --------------------
     sticks:   dense  smooth     PW     G-vecs:    dense   smooth      PW
     Min         121     121     36                 2047     2006     338
     Max         124     124     37                 2058     2007     341
     Sum         489     489    145                 8217     8025    1357



     bravais-lattice index     =            0
     lattice parameter (alat)  =       7.6356  a.u.
     unit-cell volume          =     445.1737 (a.u.)^3
     number of atoms/cell      =            4
     number of atomic types    =            1
     number of electrons       =        12.00
     number of Kohn-Sham states=           10
     kinetic-energy cutoff     =      26.0000  Ry
     charge density cutoff     =     105.0000  Ry
     convergence threshold     =      1.0E-06
     mixing beta               =       0.1000
     number of iterations used =           10  TF        mixing
     Exchange-correlation      = SLA PW PBX PBC ( 1  4  3  4 0 0)

     celldm(1)=   7.635600  celldm(2)=   0.000000  celldm(3)=   0.000000
     celldm(4)=   0.000000  celldm(5)=   0.000000  celldm(6)=   0.000000

     crystal axes: (cart. coord. in units of alat)
               a(1) = (   1.000000   0.000000   0.000000 )  
               a(2) = (   0.000000   1.000000   0.000000 )  
               a(3) = (   0.000000   0.000000   1.000000 )  

     reciprocal axes: (cart. coord. in units 2 pi/alat)
               b(1) = (  1.000000  0.000000  0.000000 )  
               b(2) = (  0.000000  1.000000  0.000000 )  
               b(3) = (  0.000000  0.000000  1.000000 )  


     PseudoPot. # 1 for Al read from file:
     /opt/pp/Al.pbe-nl-kjpaw_psl.1.0.0.UPF
     MD5 check sum: 1b67f78b73fe58c7924490f171ce8a1e
     Pseudo is Projector augmented-wave + core cor, Zval =  3.0
     Generated using "atomic" code by A. Dal Corso v.6.3
     Shape of augmentation charge: PSQ
     Using radial grid of 1135 points,  4 beta functions with: 
                l(1) =   0
                l(2) =   0
                l(3) =   1
                l(4) =   1
     Q(r) pseudized with 0 coefficients 


     atomic species   valence    mass     pseudopotential
        Al             3.00    26.98200     Al( 1.00)

     No symmetry found



   Cartesian axes

     site n.     atom                  positions (alat units)
         1           Al  tau(   1) = (  -0.0000654   0.0000190   0.0001361  )
         2           Al  tau(   2) = (   0.5001592   0.4996200   0.0001406  )
         3           Al  tau(   3) = (   0.4998143   0.0000610   0.5005910  )
         4           Al  tau(   4) = (  -0.0000400   0.5004374   0.5003674  )

     number of k points=   108  Marzari-Vanderbilt smearing, width (Ry)=  0.0500

     Number of k-points >= 100: set verbosity='high' to print them.

     Dense  grid:     8217 G-vectors     FFT dimensions: (  25,  25,  25)

     Smooth grid:     8025 G-vectors     FFT dimensions: (  25,  25,  25)

     Estimated max dynamical RAM per process >       7.51 MB

     Estimated total dynamical RAM >      30.05 MB

     Initial potential from superposition of free atoms

     starting charge   11.99084, renormalised to   12.00000
     Starting wfcs are   16 randomized atomic wfcs
     Checking if some PAW data can be deallocated... 

     total cpu time spent up to now is        0.9 secs

     Self-consistent Calculation

     iteration #  1     ecut=    26.00 Ry     beta= 0.10
     Davidson diagonalization with overlap
     ethr =  1.00E-02,  avg # of iterations =  3.9

     Threshold (ethr) on eigenvalues was too large:
     Diagonalizing with lowered threshold

     Davidson diagonalization with overlap
     ethr =  1.95E-04,  avg # of iterations =  3.4

     total cpu time spent up to now is        2.8 secs

     total energy              =    -158.01228068 Ry
     Harris-Foulkes estimate   =    -158.01306362 Ry
     estimated scf accuracy    <       0.02268697 Ry

     iteration #  2     ecut=    26.00 Ry     beta= 0.10
     Davidson diagonalization with overlap
     ethr =  1.89E-04,  avg # of iterations =  1.0

     total cpu time spent up to now is        3.5 secs

     total energy              =    -158.00648719 Ry
     Harris-Foulkes estimate   =    -158.01238689 Ry
     estimated scf accuracy    <       0.01954693 Ry

     iteration #  3     ecut=    26.00 Ry     beta= 0.10
     Davidson diagonalization with overlap
     ethr =  1.63E-04,  avg # of iterations =  1.0

     total cpu time spent up to now is        4.1 secs

     total energy              =    -158.00679450 Ry
     Harris-Foulkes estimate   =    -158.00683754 Ry
     estimated scf accuracy    <       0.00009152 Ry

     iteration #  4     ecut=    26.00 Ry     beta= 0.10
     Davidson diagonalization with overlap
     ethr =  7.63E-07,  avg # of iterations =  4.0

     total cpu time spent up to now is        5.3 secs

     total energy              =    -158.00684632 Ry
     Harris-Foulkes estimate   =    -158.00686082 Ry
     estimated scf accuracy    <       0.00005415 Ry

     iteration #  5     ecut=    26.00 Ry     beta= 0.10
     Davidson diagonalization with overlap
     ethr =  4.51E-07,  avg # of iterations =  1.0

     total cpu time spent up to now is        6.0 secs

     total energy              =    -158.00680432 Ry
     Harris-Foulkes estimate   =    -158.00684762 Ry
     estimated scf accuracy    <       0.00004138 Ry

     iteration #  6     ecut=    26.00 Ry     beta= 0.10
     Davidson diagonalization with overlap
     ethr =  3.45E-07,  avg # of iterations =  2.0

     total cpu time spent up to now is        6.8 secs

     End of self-consistent calculation

     Number of k-points >= 100: set verbosity='high' to print the bands.

     the Fermi energy is     7.8822 ev

!    total energy              =    -158.00681350 Ry
     Harris-Foulkes estimate   =    -158.00681383 Ry
     estimated scf accuracy    <       0.00000093 Ry

     total all-electron energy =     -1942.577936 Ry

     The total energy is the sum of the following terms:

     one-electron contribution =      12.66122629 Ry
     hartree contribution      =       0.02502358 Ry
     xc contribution           =     -10.36454677 Ry
     ewald contribution        =     -21.61650270 Ry
     one-center paw contrib.   =    -138.71060757 Ry
     smearing contrib. (-TS)   =      -0.00140634 Ry

     convergence has been achieved in   6 iterations

     Forces acting on atoms (cartesian axes, Ry/au):

     atom    1 type  1   force =     0.00006657   -0.00004979    0.00025308
     atom    2 type  1   force =    -0.00019403    0.00023794    0.00025345
     atom    3 type  1   force =     0.00006111    0.00005437   -0.00037245
     atom    4 type  1   force =     0.00006635   -0.00024252   -0.00013408

     Total force =     0.000675     Total SCF correction =     0.000239
     SCF correction compared to forces is large: reduce conv_thr to get better values


     Computing stress (Cartesian axis) and pressure

          total   stress  (Ry/bohr**3)                   (kbar)     P=   -1.26
  -0.00000854   0.00000001   0.00000001         -1.26      0.00      0.00
   0.00000001  -0.00000854   0.00000000          0.00     -1.26      0.00
   0.00000001   0.00000000  -0.00000852          0.00      0.00     -1.25


     Writing output data file fe_scf_fcc_2.save/

     init_run     :      0.49s CPU      0.51s WALL (       1 calls)
     electrons    :      5.46s CPU      5.86s WALL (       1 calls)
     forces       :      0.11s CPU      0.11s WALL (       1 calls)
     stress       :      0.20s CPU      0.20s WALL (       1 calls)

     Called by init_run:
     wfcinit      :      0.39s CPU      0.41s WALL (       1 calls)
     potinit      :      0.05s CPU      0.05s WALL (       1 calls)
     hinit0       :      0.05s CPU      0.05s WALL (       1 calls)

     Called by electrons:
     c_bands      :      4.50s CPU      4.85s WALL (       7 calls)
     sum_band     :      0.67s CPU      0.70s WALL (       7 calls)
     v_of_rho     :      0.02s CPU      0.02s WALL (       7 calls)
     newd         :      0.01s CPU      0.01s WALL (       7 calls)
     PAW_pot      :      0.31s CPU      0.31s WALL (       7 calls)
     mix_rho      :      0.00s CPU      0.00s WALL (       7 calls)

     Called by c_bands:
     init_us_2    :      0.10s CPU      0.11s WALL (    1836 calls)
     cegterg      :      4.32s CPU      4.67s WALL (     756 calls)

     Called by sum_band:
     sum_band:bec :      0.00s CPU      0.00s WALL (     756 calls)
     addusdens    :      0.01s CPU      0.01s WALL (       7 calls)

     Called by *egterg:
     h_psi        :      3.19s CPU      3.43s WALL (    2624 calls)
     s_psi        :      0.25s CPU      0.27s WALL (    2624 calls)
     g_psi        :      0.01s CPU      0.01s WALL (    1760 calls)
     cdiaghg      :      0.43s CPU      0.46s WALL (    2408 calls)

     Called by h_psi:
     h_psi:pot    :      3.18s CPU      3.42s WALL (    2624 calls)
     h_psi:calbec :      0.38s CPU      0.42s WALL (    2624 calls)
     vloc_psi     :      2.54s CPU      2.73s WALL (    2624 calls)
     add_vuspsi   :      0.25s CPU      0.27s WALL (    2624 calls)

     General routines
     calbec       :      0.64s CPU      0.68s WALL (    3920 calls)
     fft          :      0.01s CPU      0.01s WALL (     115 calls)
     ffts         :      0.00s CPU      0.00s WALL (      14 calls)
     fftw         :      2.74s CPU      2.94s WALL (   50144 calls)
     interpolate  :      0.00s CPU      0.00s WALL (       7 calls)

     Parallel routines
     fft_scatt_xy :      0.32s CPU      0.35s WALL (   50273 calls)
     fft_scatt_yz :      1.31s CPU      1.42s WALL (   50273 calls)

     PWSCF        :      6.73s CPU      7.18s WALL


   This run was terminated on:   7:19:45  11Mar2020            

=------------------------------------------------------------------------------=
   JOB DONE.
=------------------------------------------------------------------------------=
