
     Program PWSCF v.6.4.1 starts on 11Mar2020 at  8:21:13 

     This program is part of the open-source Quantum ESPRESSO suite
     for quantum simulation of materials; please cite
         "P. Giannozzi et al., J. Phys.:Condens. Matter 21 395502 (2009);
         "P. Giannozzi et al., J. Phys.:Condens. Matter 29 465901 (2017);
          URL http://www.quantum-espresso.org", 
     in publications or presentations arising from this work. More details at
     http://www.quantum-espresso.org/quote

     Parallel version (MPI), running on     4 processors

     MPI processes distributed on     1 nodes
     R & G space division:  proc/nbgrp/npool/nimage =       4
     Reading input from wd/kpoints/file_000215.in
Warning: card &IONS ignored
Warning: card ION_DYNAMICS = 'BFGS', ignored
Warning: card / ignored
Warning: card &CELL ignored
Warning: card CELL_DYNAMICS = 'BFGS', ignored
Warning: card CELL_FACTOR = 2.0, ignored
Warning: card PRESS = 0.0, ignored
Warning: card / ignored

     Current dimensions of program PWSCF are:
     Max number of different atomic species (ntypx) = 10
     Max number of k-points (npk) =  40000
     Max angular momentum in pseudopotentials (lmaxx) =  3
               file Al.pbe-nl-kjpaw_psl.1.0.0.UPF: wavefunction(s)  3S 3P renormalized

     Subspace diagonalization in iterative solution of the eigenvalue problem:
     a serial algorithm will be used


     Parallelization info
     --------------------
     sticks:   dense  smooth     PW     G-vecs:    dense   smooth      PW
     Min         121     121     36                 2051     2006     340
     Max         124     124     37                 2058     2007     343
     Sum         489     489    145                 8217     8025    1365



     bravais-lattice index     =            0
     lattice parameter (alat)  =       7.6356  a.u.
     unit-cell volume          =     445.1737 (a.u.)^3
     number of atoms/cell      =            4
     number of atomic types    =            1
     number of electrons       =        12.00
     number of Kohn-Sham states=           10
     kinetic-energy cutoff     =      26.0000  Ry
     charge density cutoff     =     105.0000  Ry
     convergence threshold     =      1.0E-06
     mixing beta               =       0.1000
     number of iterations used =           10  TF        mixing
     Exchange-correlation      = SLA PW PBX PBC ( 1  4  3  4 0 0)

     celldm(1)=   7.635600  celldm(2)=   0.000000  celldm(3)=   0.000000
     celldm(4)=   0.000000  celldm(5)=   0.000000  celldm(6)=   0.000000

     crystal axes: (cart. coord. in units of alat)
               a(1) = (   1.000000   0.000000   0.000000 )  
               a(2) = (   0.000000   1.000000   0.000000 )  
               a(3) = (   0.000000   0.000000   1.000000 )  

     reciprocal axes: (cart. coord. in units 2 pi/alat)
               b(1) = (  1.000000  0.000000  0.000000 )  
               b(2) = (  0.000000  1.000000  0.000000 )  
               b(3) = (  0.000000  0.000000  1.000000 )  


     PseudoPot. # 1 for Al read from file:
     /opt/pp/Al.pbe-nl-kjpaw_psl.1.0.0.UPF
     MD5 check sum: 1b67f78b73fe58c7924490f171ce8a1e
     Pseudo is Projector augmented-wave + core cor, Zval =  3.0
     Generated using "atomic" code by A. Dal Corso v.6.3
     Shape of augmentation charge: PSQ
     Using radial grid of 1135 points,  4 beta functions with: 
                l(1) =   0
                l(2) =   0
                l(3) =   1
                l(4) =   1
     Q(r) pseudized with 0 coefficients 


     atomic species   valence    mass     pseudopotential
        Al             3.00    26.98200     Al( 1.00)

     No symmetry found



   Cartesian axes

     site n.     atom                  positions (alat units)
         1           Al  tau(   1) = (  -0.0000654   0.0000190   0.0001361  )
         2           Al  tau(   2) = (   0.5001592   0.4996200   0.0001406  )
         3           Al  tau(   3) = (   0.4998143   0.0000610   0.5005910  )
         4           Al  tau(   4) = (  -0.0000400   0.5004374   0.5003674  )

     number of k points=   500  Marzari-Vanderbilt smearing, width (Ry)=  0.0070

     Number of k-points >= 100: set verbosity='high' to print them.

     Dense  grid:     8217 G-vectors     FFT dimensions: (  25,  25,  25)

     Smooth grid:     8025 G-vectors     FFT dimensions: (  25,  25,  25)

     Estimated max dynamical RAM per process >      22.40 MB

     Estimated total dynamical RAM >      89.61 MB

     Initial potential from superposition of free atoms

     starting charge   11.99084, renormalised to   12.00000
     Starting wfcs are   16 randomized atomic wfcs
     Checking if some PAW data can be deallocated... 

     total cpu time spent up to now is        2.5 secs

     Self-consistent Calculation

     iteration #  1     ecut=    26.00 Ry     beta= 0.10
     Davidson diagonalization with overlap
     ethr =  1.00E-02,  avg # of iterations =  3.2

     Threshold (ethr) on eigenvalues was too large:
     Diagonalizing with lowered threshold

     Davidson diagonalization with overlap
     ethr =  1.94E-04,  avg # of iterations =  3.9

     total cpu time spent up to now is       10.9 secs

     total energy              =    -158.01597385 Ry
     Harris-Foulkes estimate   =    -158.01677140 Ry
     estimated scf accuracy    <       0.02261363 Ry

     iteration #  2     ecut=    26.00 Ry     beta= 0.10
     Davidson diagonalization with overlap
     ethr =  1.88E-04,  avg # of iterations =  1.1

     total cpu time spent up to now is       13.7 secs

     total energy              =    -158.01006059 Ry
     Harris-Foulkes estimate   =    -158.01606882 Ry
     estimated scf accuracy    <       0.01949892 Ry

     iteration #  3     ecut=    26.00 Ry     beta= 0.10
     Davidson diagonalization with overlap
     ethr =  1.62E-04,  avg # of iterations =  1.0

     total cpu time spent up to now is       16.6 secs

     total energy              =    -158.01037870 Ry
     Harris-Foulkes estimate   =    -158.01041809 Ry
     estimated scf accuracy    <       0.00008629 Ry

     iteration #  4     ecut=    26.00 Ry     beta= 0.10
     Davidson diagonalization with overlap
     ethr =  7.19E-07,  avg # of iterations =  3.7

     total cpu time spent up to now is       21.8 secs

     total energy              =    -158.01043509 Ry
     Harris-Foulkes estimate   =    -158.01044771 Ry
     estimated scf accuracy    <       0.00005503 Ry

     iteration #  5     ecut=    26.00 Ry     beta= 0.10
     Davidson diagonalization with overlap
     ethr =  4.59E-07,  avg # of iterations =  1.0

     total cpu time spent up to now is       24.7 secs

     total energy              =    -158.01039426 Ry
     Harris-Foulkes estimate   =    -158.01043653 Ry
     estimated scf accuracy    <       0.00004244 Ry

     iteration #  6     ecut=    26.00 Ry     beta= 0.10
     Davidson diagonalization with overlap
     ethr =  3.54E-07,  avg # of iterations =  2.0

     total cpu time spent up to now is       28.3 secs

     End of self-consistent calculation

     Number of k-points >= 100: set verbosity='high' to print the bands.

     the Fermi energy is     8.0086 ev

!    total energy              =    -158.01040322 Ry
     Harris-Foulkes estimate   =    -158.01040359 Ry
     estimated scf accuracy    <       0.00000095 Ry

     total all-electron energy =     -1942.581525 Ry

     The total energy is the sum of the following terms:

     one-electron contribution =      12.65590991 Ry
     hartree contribution      =       0.02416385 Ry
     xc contribution           =     -10.36371983 Ry
     ewald contribution        =     -21.61650270 Ry
     one-center paw contrib.   =    -138.71009492 Ry
     smearing contrib. (-TS)   =      -0.00015953 Ry

     convergence has been achieved in   6 iterations

     Forces acting on atoms (cartesian axes, Ry/au):

     atom    1 type  1   force =     0.00006551   -0.00004859    0.00023515
     atom    2 type  1   force =    -0.00019766    0.00024793    0.00023475
     atom    3 type  1   force =     0.00006800    0.00005564   -0.00035688
     atom    4 type  1   force =     0.00006415   -0.00025498   -0.00011302

     Total force =     0.000659     Total SCF correction =     0.000241
     SCF correction compared to forces is large: reduce conv_thr to get better values


     Computing stress (Cartesian axis) and pressure

          total   stress  (Ry/bohr**3)                   (kbar)     P=   -2.41
  -0.00001637   0.00000001   0.00000001         -2.41      0.00      0.00
   0.00000001  -0.00001637   0.00000000          0.00     -2.41      0.00
   0.00000001   0.00000000  -0.00001635          0.00      0.00     -2.41


     Writing output data file fe_scf_fcc_2.save/

     init_run     :      1.85s CPU      2.00s WALL (       1 calls)
     electrons    :     23.99s CPU     25.88s WALL (       1 calls)
     forces       :      0.50s CPU      0.52s WALL (       1 calls)
     stress       :      0.87s CPU      0.87s WALL (       1 calls)

     Called by init_run:
     wfcinit      :      1.74s CPU      1.89s WALL (       1 calls)
     potinit      :      0.05s CPU      0.05s WALL (       1 calls)
     hinit0       :      0.05s CPU      0.05s WALL (       1 calls)

     Called by electrons:
     c_bands      :     20.84s CPU     22.44s WALL (       7 calls)
     sum_band     :      2.86s CPU      3.13s WALL (       7 calls)
     v_of_rho     :      0.02s CPU      0.02s WALL (       7 calls)
     newd         :      0.01s CPU      0.01s WALL (       7 calls)
     PAW_pot      :      0.31s CPU      0.32s WALL (       7 calls)
     mix_rho      :      0.00s CPU      0.00s WALL (       7 calls)

     Called by c_bands:
     init_us_2    :      0.48s CPU      0.52s WALL (    8500 calls)
     cegterg      :     20.01s CPU     21.56s WALL (    3500 calls)

     Called by sum_band:
     sum_band:bec :      0.02s CPU      0.02s WALL (    3500 calls)
     addusdens    :      0.01s CPU      0.01s WALL (       7 calls)

     Called by *egterg:
     h_psi        :     14.79s CPU     15.98s WALL (   11945 calls)
     s_psi        :      1.21s CPU      1.32s WALL (   11945 calls)
     g_psi        :      0.06s CPU      0.07s WALL (    7945 calls)
     cdiaghg      :      1.87s CPU      2.00s WALL (   10945 calls)

     Called by h_psi:
     h_psi:pot    :     14.75s CPU     15.93s WALL (   11945 calls)
     h_psi:calbec :      1.79s CPU      1.95s WALL (   11945 calls)
     vloc_psi     :     11.71s CPU     12.63s WALL (   11945 calls)
     add_vuspsi   :      1.22s CPU      1.32s WALL (   11945 calls)

     General routines
     calbec       :      2.97s CPU      3.19s WALL (   17945 calls)
     fft          :      0.01s CPU      0.01s WALL (     115 calls)
     ffts         :      0.00s CPU      0.00s WALL (      14 calls)
     fftw         :     12.50s CPU     13.52s WALL (  231114 calls)
     interpolate  :      0.00s CPU      0.00s WALL (       7 calls)

     Parallel routines
     fft_scatt_xy :      1.51s CPU      1.63s WALL (  231243 calls)
     fft_scatt_yz :      5.74s CPU      6.26s WALL (  231243 calls)

     PWSCF        :     27.88s CPU     30.04s WALL


   This run was terminated on:   8:21:44  11Mar2020            

=------------------------------------------------------------------------------=
   JOB DONE.
=------------------------------------------------------------------------------=
