
     Program PWSCF v.6.4.1 starts on  9Mar2020 at  6:55: 5 

     This program is part of the open-source Quantum ESPRESSO suite
     for quantum simulation of materials; please cite
         "P. Giannozzi et al., J. Phys.:Condens. Matter 21 395502 (2009);
         "P. Giannozzi et al., J. Phys.:Condens. Matter 29 465901 (2017);
          URL http://www.quantum-espresso.org", 
     in publications or presentations arising from this work. More details at
     http://www.quantum-espresso.org/quote

     Parallel version (MPI), running on     4 processors

     MPI processes distributed on     1 nodes
     R & G space division:  proc/nbgrp/npool/nimage =       4
     Reading input from wd/kpoints/file_000093.in
Warning: card &IONS ignored
Warning: card ION_DYNAMICS = 'BFGS', ignored
Warning: card / ignored
Warning: card &CELL ignored
Warning: card CELL_DYNAMICS = 'BFGS', ignored
Warning: card CELL_FACTOR = 2.0, ignored
Warning: card PRESS = 0.0, ignored
Warning: card / ignored

     Current dimensions of program PWSCF are:
     Max number of different atomic species (ntypx) = 10
     Max number of k-points (npk) =  40000
     Max angular momentum in pseudopotentials (lmaxx) =  3
               file Al.pbe-nl-kjpaw_psl.1.0.0.UPF: wavefunction(s)  3S 3P renormalized

     Subspace diagonalization in iterative solution of the eigenvalue problem:
     a serial algorithm will be used


     Parallelization info
     --------------------
     sticks:   dense  smooth     PW     G-vecs:    dense   smooth      PW
     Min         187     187     58                 3817     3817     650
     Max         188     188     59                 3820     3820     651
     Sum         749     749    233                15275    15275    2601



     bravais-lattice index     =            0
     lattice parameter (alat)  =       7.6356  a.u.
     unit-cell volume          =     445.1737 (a.u.)^3
     number of atoms/cell      =            4
     number of atomic types    =            1
     number of electrons       =        12.00
     number of Kohn-Sham states=           10
     kinetic-energy cutoff     =      40.0000  Ry
     charge density cutoff     =     160.0000  Ry
     convergence threshold     =      1.0E-06
     mixing beta               =       0.1000
     number of iterations used =           10  TF        mixing
     Exchange-correlation      = SLA PW PBX PBC ( 1  4  3  4 0 0)

     celldm(1)=   7.635600  celldm(2)=   0.000000  celldm(3)=   0.000000
     celldm(4)=   0.000000  celldm(5)=   0.000000  celldm(6)=   0.000000

     crystal axes: (cart. coord. in units of alat)
               a(1) = (   1.000000   0.000000   0.000000 )  
               a(2) = (   0.000000   1.000000   0.000000 )  
               a(3) = (   0.000000   0.000000   1.000000 )  

     reciprocal axes: (cart. coord. in units 2 pi/alat)
               b(1) = (  1.000000  0.000000  0.000000 )  
               b(2) = (  0.000000  1.000000  0.000000 )  
               b(3) = (  0.000000  0.000000  1.000000 )  


     PseudoPot. # 1 for Al read from file:
     /opt/pp/Al.pbe-nl-kjpaw_psl.1.0.0.UPF
     MD5 check sum: 1b67f78b73fe58c7924490f171ce8a1e
     Pseudo is Projector augmented-wave + core cor, Zval =  3.0
     Generated using "atomic" code by A. Dal Corso v.6.3
     Shape of augmentation charge: PSQ
     Using radial grid of 1135 points,  4 beta functions with: 
                l(1) =   0
                l(2) =   0
                l(3) =   1
                l(4) =   1
     Q(r) pseudized with 0 coefficients 


     atomic species   valence    mass     pseudopotential
        Al             3.00    26.98200     Al( 1.00)

     No symmetry found



   Cartesian axes

     site n.     atom                  positions (alat units)
         1           Al  tau(   1) = (  -0.0000654   0.0000190   0.0001361  )
         2           Al  tau(   2) = (   0.5001592   0.4996200   0.0001406  )
         3           Al  tau(   3) = (   0.4998143   0.0000610   0.5005910  )
         4           Al  tau(   4) = (  -0.0000400   0.5004374   0.5003674  )

     number of k points=    14  Marzari-Vanderbilt smearing, width (Ry)=  0.0010
                       cart. coord. in units 2pi/alat
        k(    1) = (   0.1666667   0.1666667   0.1666667), wk =   0.1481481
        k(    2) = (   0.1666667   0.1666667  -0.5000000), wk =   0.1481481
        k(    3) = (   0.1666667  -0.5000000  -0.5000000), wk =   0.1481481
        k(    4) = (  -0.5000000  -0.5000000  -0.5000000), wk =   0.0740741
        k(    5) = (  -0.1666667  -0.1666667   0.1666667), wk =   0.1481481
        k(    6) = (  -0.1666667   0.1666667  -0.1666667), wk =   0.1481481
        k(    7) = (   0.1666667  -0.1666667  -0.1666667), wk =   0.1481481
        k(    8) = (  -0.1666667   0.1666667   0.5000000), wk =   0.1481481
        k(    9) = (  -0.5000000  -0.1666667   0.1666667), wk =   0.1481481
        k(   10) = (   0.5000000  -0.1666667  -0.1666667), wk =   0.1481481
        k(   11) = (  -0.1666667  -0.5000000   0.1666667), wk =   0.1481481
        k(   12) = (  -0.1666667   0.5000000  -0.1666667), wk =   0.1481481
        k(   13) = (  -0.5000000   0.1666667   0.5000000), wk =   0.1481481
        k(   14) = (  -0.5000000   0.5000000   0.1666667), wk =   0.1481481

     Dense  grid:    15275 G-vectors     FFT dimensions: (  32,  32,  32)

     Estimated max dynamical RAM per process >       7.18 MB

     Estimated total dynamical RAM >      28.71 MB

     Initial potential from superposition of free atoms

     starting charge   11.99084, renormalised to   12.00000
     Starting wfcs are   16 randomized atomic wfcs
     Checking if some PAW data can be deallocated... 

     total cpu time spent up to now is        0.9 secs

     Self-consistent Calculation

     iteration #  1     ecut=    40.00 Ry     beta= 0.10
     Davidson diagonalization with overlap
     ethr =  1.00E-02,  avg # of iterations =  2.9

     Threshold (ethr) on eigenvalues was too large:
     Diagonalizing with lowered threshold

     Davidson diagonalization with overlap
     ethr =  1.90E-04,  avg # of iterations =  2.3

     total cpu time spent up to now is        1.4 secs

     total energy              =    -158.04888760 Ry
     Harris-Foulkes estimate   =    -158.04963726 Ry
     estimated scf accuracy    <       0.02196496 Ry

     iteration #  2     ecut=    40.00 Ry     beta= 0.10
     Davidson diagonalization with overlap
     ethr =  1.83E-04,  avg # of iterations =  1.0

     total cpu time spent up to now is        1.6 secs

     total energy              =    -158.04340129 Ry
     Harris-Foulkes estimate   =    -158.04902587 Ry
     estimated scf accuracy    <       0.01893351 Ry

     iteration #  3     ecut=    40.00 Ry     beta= 0.10
     Davidson diagonalization with overlap
     ethr =  1.58E-04,  avg # of iterations =  1.0

     total cpu time spent up to now is        1.9 secs

     total energy              =    -158.04368351 Ry
     Harris-Foulkes estimate   =    -158.04373878 Ry
     estimated scf accuracy    <       0.00017303 Ry

     iteration #  4     ecut=    40.00 Ry     beta= 0.10
     Davidson diagonalization with overlap
     ethr =  1.44E-06,  avg # of iterations =  4.4

     total cpu time spent up to now is        2.3 secs

     total energy              =    -158.04370522 Ry
     Harris-Foulkes estimate   =    -158.04374585 Ry
     estimated scf accuracy    <       0.00011624 Ry

     iteration #  5     ecut=    40.00 Ry     beta= 0.10
     Davidson diagonalization with overlap
     ethr =  9.69E-07,  avg # of iterations =  1.6

     total cpu time spent up to now is        2.5 secs

     total energy              =    -158.04367985 Ry
     Harris-Foulkes estimate   =    -158.04371741 Ry
     estimated scf accuracy    <       0.00006373 Ry

     iteration #  6     ecut=    40.00 Ry     beta= 0.10
     Davidson diagonalization with overlap
     ethr =  5.31E-07,  avg # of iterations =  1.0

     total cpu time spent up to now is        2.8 secs

     total energy              =    -158.04368337 Ry
     Harris-Foulkes estimate   =    -158.04368274 Ry
     estimated scf accuracy    <       0.00000891 Ry

     iteration #  7     ecut=    40.00 Ry     beta= 0.10
     Davidson diagonalization with overlap
     ethr =  7.42E-08,  avg # of iterations =  1.4

     total cpu time spent up to now is        3.0 secs

     total energy              =    -158.04368422 Ry
     Harris-Foulkes estimate   =    -158.04368403 Ry
     estimated scf accuracy    <       0.00000473 Ry

     iteration #  8     ecut=    40.00 Ry     beta= 0.10
     Davidson diagonalization with overlap
     ethr =  3.94E-08,  avg # of iterations =  2.1

     total cpu time spent up to now is        3.4 secs

     End of self-consistent calculation

          k = 0.1667 0.1667 0.1667 (  1905 PWs)   bands (ev):

    -2.4778   3.3915   3.3916   3.3916   8.9399   8.9420   8.9443   9.4183
     9.4199   9.4218

          k = 0.1667 0.1667-0.5000 (  1918 PWs)   bands (ev):

    -0.4910  -0.4827   5.1703   5.1705   5.4432   5.4433  10.9100  10.9133
    10.9190  11.4945

          k = 0.1667-0.5000-0.5000 (  1880 PWs)   bands (ev):

     1.4729   1.4731   1.4811   1.4815   7.2039   7.2042   7.2126   7.2130
    13.0175  13.0218

          k =-0.5000-0.5000-0.5000 (  1904 PWs)   bands (ev):

     3.3120   3.3121   3.3121   3.3123   3.5313   3.5314   3.5315   3.5318
    19.3163  19.3165

          k =-0.1667-0.1667 0.1667 (  1905 PWs)   bands (ev):

    -2.4778   3.3914   3.3916   3.3917   8.9404   8.9419   8.9438   9.4187
     9.4199   9.4214

          k =-0.1667 0.1667-0.1667 (  1905 PWs)   bands (ev):

    -2.4778   3.3915   3.3916   3.3916   8.9407   8.9420   8.9433   9.4190
     9.4200   9.4211

          k = 0.1667-0.1667-0.1667 (  1905 PWs)   bands (ev):

    -2.4778   3.3915   3.3915   3.3917   8.9406   8.9419   8.9435   9.4188
     9.4199   9.4213

          k =-0.1667 0.1667 0.5000 (  1918 PWs)   bands (ev):

    -0.4910  -0.4827   5.1704   5.1705   5.4431   5.4433  10.9096  10.9134
    10.9135  10.9191

          k =-0.5000-0.1667 0.1667 (  1918 PWs)   bands (ev):

    -0.4873  -0.4864   5.1704   5.1706   5.4431   5.4432  10.9124  10.9144
    10.9155  11.4945

          k = 0.5000-0.1667-0.1667 (  1918 PWs)   bands (ev):

    -0.4873  -0.4864   5.1704   5.1705   5.4431   5.4433  10.9129  10.9134
    10.9141  10.9151

          k =-0.1667-0.5000 0.1667 (  1918 PWs)   bands (ev):

    -0.4870  -0.4867   5.1704   5.1706   5.4430   5.4433  10.9123  10.9144
    10.9156  11.4942

          k =-0.1667 0.5000-0.1667 (  1918 PWs)   bands (ev):

    -0.4870  -0.4867   5.1704   5.1705   5.4431   5.4432  10.9119  10.9133
    10.9144  10.9160

          k =-0.5000 0.1667 0.5000 (  1880 PWs)   bands (ev):

     1.4726   1.4734   1.4808   1.4818   7.2036   7.2045   7.2122   7.2133
    13.0176  13.0220

          k =-0.5000 0.5000 0.1667 (  1880 PWs)   bands (ev):

     1.4765   1.4768   1.4774   1.4778   7.2077   7.2080   7.2087   7.2092
    13.0205  13.0207

     the Fermi energy is     8.9326 ev

!    total energy              =    -158.04368498 Ry
     Harris-Foulkes estimate   =    -158.04368526 Ry
     estimated scf accuracy    <       0.00000041 Ry

     total all-electron energy =     -1942.614807 Ry

     The total energy is the sum of the following terms:

     one-electron contribution =      12.62586139 Ry
     hartree contribution      =       0.02532519 Ry
     xc contribution           =     -10.36600359 Ry
     ewald contribution        =     -21.61650270 Ry
     one-center paw contrib.   =    -138.71222357 Ry
     smearing contrib. (-TS)   =      -0.00014169 Ry

     convergence has been achieved in   8 iterations

     Forces acting on atoms (cartesian axes, Ry/au):

     atom    1 type  1   force =     0.00001578   -0.00007986    0.00039877
     atom    2 type  1   force =     0.00038290   -0.00095087    0.00039719
     atom    3 type  1   force =    -0.00049398    0.00005968   -0.00014638
     atom    4 type  1   force =     0.00009530    0.00097104   -0.00064958

     Total force =     0.001737     Total SCF correction =     0.000083


     Computing stress (Cartesian axis) and pressure

          total   stress  (Ry/bohr**3)                   (kbar)     P=   -2.02
  -0.00001376  -0.00000078  -0.00000029         -2.02     -0.11     -0.04
  -0.00000078  -0.00001365  -0.00000038         -0.11     -2.01     -0.06
  -0.00000029  -0.00000038  -0.00001369         -0.04     -0.06     -2.01


     Writing output data file fe_scf_fcc_2.save/

     init_run     :      0.29s CPU      0.29s WALL (       1 calls)
     electrons    :      2.27s CPU      2.49s WALL (       1 calls)
     forces       :      0.04s CPU      0.05s WALL (       1 calls)
     stress       :      0.13s CPU      0.13s WALL (       1 calls)

     Called by init_run:
     wfcinit      :      0.13s CPU      0.13s WALL (       1 calls)
     potinit      :      0.09s CPU      0.09s WALL (       1 calls)
     hinit0       :      0.06s CPU      0.07s WALL (       1 calls)

     Called by electrons:
     c_bands      :      1.45s CPU      1.64s WALL (       9 calls)
     sum_band     :      0.27s CPU      0.29s WALL (       9 calls)
     v_of_rho     :      0.06s CPU      0.06s WALL (       9 calls)
     newd         :      0.05s CPU      0.05s WALL (       9 calls)
     PAW_pot      :      0.53s CPU      0.53s WALL (       9 calls)
     mix_rho      :      0.01s CPU      0.01s WALL (       9 calls)

     Called by c_bands:
     init_us_2    :      0.03s CPU      0.04s WALL (     294 calls)
     cegterg      :      1.39s CPU      1.55s WALL (     126 calls)

     Called by sum_band:
     sum_band:bec :      0.00s CPU      0.00s WALL (     126 calls)
     addusdens    :      0.02s CPU      0.02s WALL (       9 calls)

     Called by *egterg:
     h_psi        :      1.00s CPU      1.10s WALL (     386 calls)
     s_psi        :      0.07s CPU      0.08s WALL (     386 calls)
     g_psi        :      0.00s CPU      0.00s WALL (     246 calls)
     cdiaghg      :      0.08s CPU      0.08s WALL (     358 calls)

     Called by h_psi:
     h_psi:pot    :      0.99s CPU      1.10s WALL (     386 calls)
     h_psi:calbec :      0.14s CPU      0.16s WALL (     386 calls)
     vloc_psi     :      0.78s CPU      0.86s WALL (     386 calls)
     add_vuspsi   :      0.08s CPU      0.08s WALL (     386 calls)

     General routines
     calbec       :      0.26s CPU      0.29s WALL (     582 calls)
     fft          :      0.04s CPU      0.04s WALL (     125 calls)
     ffts         :      0.00s CPU      0.00s WALL (       9 calls)
     fftw         :      0.87s CPU      0.96s WALL (    7772 calls)

     Parallel routines
     fft_scatt_xy :      0.10s CPU      0.12s WALL (    7906 calls)
     fft_scatt_yz :      0.56s CPU      0.61s WALL (    7906 calls)

     PWSCF        :      3.27s CPU      3.59s WALL


   This run was terminated on:   6:55: 9   9Mar2020            

=------------------------------------------------------------------------------=
   JOB DONE.
=------------------------------------------------------------------------------=
