
     Program PWSCF v.6.4.1 starts on 11Mar2020 at  7:17:58 

     This program is part of the open-source Quantum ESPRESSO suite
     for quantum simulation of materials; please cite
         "P. Giannozzi et al., J. Phys.:Condens. Matter 21 395502 (2009);
         "P. Giannozzi et al., J. Phys.:Condens. Matter 29 465901 (2017);
          URL http://www.quantum-espresso.org", 
     in publications or presentations arising from this work. More details at
     http://www.quantum-espresso.org/quote

     Parallel version (MPI), running on     4 processors

     MPI processes distributed on     1 nodes
     R & G space division:  proc/nbgrp/npool/nimage =       4
     Reading input from wd/kpoints/file_000154.in
Warning: card &IONS ignored
Warning: card ION_DYNAMICS = 'BFGS', ignored
Warning: card / ignored
Warning: card &CELL ignored
Warning: card CELL_DYNAMICS = 'BFGS', ignored
Warning: card CELL_FACTOR = 2.0, ignored
Warning: card PRESS = 0.0, ignored
Warning: card / ignored

     Current dimensions of program PWSCF are:
     Max number of different atomic species (ntypx) = 10
     Max number of k-points (npk) =  40000
     Max angular momentum in pseudopotentials (lmaxx) =  3
               file Al.pbe-nl-kjpaw_psl.1.0.0.UPF: wavefunction(s)  3S 3P renormalized

     Subspace diagonalization in iterative solution of the eigenvalue problem:
     a serial algorithm will be used


     Parallelization info
     --------------------
     sticks:   dense  smooth     PW     G-vecs:    dense   smooth      PW
     Min         121     121     36                 2047     2006     338
     Max         124     124     37                 2058     2007     341
     Sum         489     489    145                 8217     8025    1357



     bravais-lattice index     =            0
     lattice parameter (alat)  =       7.6356  a.u.
     unit-cell volume          =     445.1737 (a.u.)^3
     number of atoms/cell      =            4
     number of atomic types    =            1
     number of electrons       =        12.00
     number of Kohn-Sham states=           10
     kinetic-energy cutoff     =      26.0000  Ry
     charge density cutoff     =     105.0000  Ry
     convergence threshold     =      1.0E-06
     mixing beta               =       0.1000
     number of iterations used =           10  TF        mixing
     Exchange-correlation      = SLA PW PBX PBC ( 1  4  3  4 0 0)

     celldm(1)=   7.635600  celldm(2)=   0.000000  celldm(3)=   0.000000
     celldm(4)=   0.000000  celldm(5)=   0.000000  celldm(6)=   0.000000

     crystal axes: (cart. coord. in units of alat)
               a(1) = (   1.000000   0.000000   0.000000 )  
               a(2) = (   0.000000   1.000000   0.000000 )  
               a(3) = (   0.000000   0.000000   1.000000 )  

     reciprocal axes: (cart. coord. in units 2 pi/alat)
               b(1) = (  1.000000  0.000000  0.000000 )  
               b(2) = (  0.000000  1.000000  0.000000 )  
               b(3) = (  0.000000  0.000000  1.000000 )  


     PseudoPot. # 1 for Al read from file:
     /opt/pp/Al.pbe-nl-kjpaw_psl.1.0.0.UPF
     MD5 check sum: 1b67f78b73fe58c7924490f171ce8a1e
     Pseudo is Projector augmented-wave + core cor, Zval =  3.0
     Generated using "atomic" code by A. Dal Corso v.6.3
     Shape of augmentation charge: PSQ
     Using radial grid of 1135 points,  4 beta functions with: 
                l(1) =   0
                l(2) =   0
                l(3) =   1
                l(4) =   1
     Q(r) pseudized with 0 coefficients 


     atomic species   valence    mass     pseudopotential
        Al             3.00    26.98200     Al( 1.00)

     No symmetry found



   Cartesian axes

     site n.     atom                  positions (alat units)
         1           Al  tau(   1) = (  -0.0000654   0.0000190   0.0001361  )
         2           Al  tau(   2) = (   0.5001592   0.4996200   0.0001406  )
         3           Al  tau(   3) = (   0.4998143   0.0000610   0.5005910  )
         4           Al  tau(   4) = (  -0.0000400   0.5004374   0.5003674  )

     number of k points=    32  Marzari-Vanderbilt smearing, width (Ry)=  0.0050
                       cart. coord. in units 2pi/alat
        k(    1) = (   0.1250000   0.1250000   0.1250000), wk =   0.0625000
        k(    2) = (   0.1250000   0.1250000   0.3750000), wk =   0.0625000
        k(    3) = (   0.1250000   0.3750000   0.3750000), wk =   0.0625000
        k(    4) = (   0.3750000   0.3750000   0.3750000), wk =   0.0625000
        k(    5) = (  -0.1250000  -0.1250000   0.1250000), wk =   0.0625000
        k(    6) = (  -0.1250000   0.1250000  -0.1250000), wk =   0.0625000
        k(    7) = (   0.1250000  -0.1250000  -0.1250000), wk =   0.0625000
        k(    8) = (  -0.1250000  -0.1250000   0.3750000), wk =   0.0625000
        k(    9) = (  -0.1250000   0.1250000  -0.3750000), wk =   0.0625000
        k(   10) = (   0.1250000  -0.1250000  -0.3750000), wk =   0.0625000
        k(   11) = (   0.3750000  -0.1250000   0.1250000), wk =   0.0625000
        k(   12) = (  -0.3750000  -0.1250000  -0.1250000), wk =   0.0625000
        k(   13) = (   0.3750000   0.1250000  -0.1250000), wk =   0.0625000
        k(   14) = (  -0.3750000   0.1250000   0.1250000), wk =   0.0625000
        k(   15) = (  -0.1250000   0.3750000   0.1250000), wk =   0.0625000
        k(   16) = (  -0.1250000  -0.3750000  -0.1250000), wk =   0.0625000
        k(   17) = (   0.1250000   0.3750000  -0.1250000), wk =   0.0625000
        k(   18) = (   0.1250000  -0.3750000   0.1250000), wk =   0.0625000
        k(   19) = (  -0.1250000  -0.3750000   0.3750000), wk =   0.0625000
        k(   20) = (  -0.1250000   0.3750000  -0.3750000), wk =   0.0625000
        k(   21) = (   0.1250000  -0.3750000  -0.3750000), wk =   0.0625000
        k(   22) = (   0.3750000   0.1250000  -0.3750000), wk =   0.0625000
        k(   23) = (  -0.3750000  -0.1250000  -0.3750000), wk =   0.0625000
        k(   24) = (   0.3750000  -0.1250000   0.3750000), wk =   0.0625000
        k(   25) = (  -0.3750000   0.1250000   0.3750000), wk =   0.0625000
        k(   26) = (   0.3750000  -0.3750000   0.1250000), wk =   0.0625000
        k(   27) = (  -0.3750000  -0.3750000  -0.1250000), wk =   0.0625000
        k(   28) = (   0.3750000   0.3750000  -0.1250000), wk =   0.0625000
        k(   29) = (  -0.3750000   0.3750000   0.1250000), wk =   0.0625000
        k(   30) = (  -0.3750000  -0.3750000   0.3750000), wk =   0.0625000
        k(   31) = (  -0.3750000   0.3750000  -0.3750000), wk =   0.0625000
        k(   32) = (   0.3750000  -0.3750000  -0.3750000), wk =   0.0625000

     Dense  grid:     8217 G-vectors     FFT dimensions: (  25,  25,  25)

     Smooth grid:     8025 G-vectors     FFT dimensions: (  25,  25,  25)

     Estimated max dynamical RAM per process >       4.63 MB

     Estimated total dynamical RAM >      18.50 MB

     Initial potential from superposition of free atoms

     starting charge   11.99084, renormalised to   12.00000
     Starting wfcs are   16 randomized atomic wfcs
     Checking if some PAW data can be deallocated... 

     total cpu time spent up to now is        0.7 secs

     Self-consistent Calculation

     iteration #  1     ecut=    26.00 Ry     beta= 0.10
     Davidson diagonalization with overlap
     ethr =  1.00E-02,  avg # of iterations =  3.1

     Threshold (ethr) on eigenvalues was too large:
     Diagonalizing with lowered threshold

     Davidson diagonalization with overlap
     ethr =  1.97E-04,  avg # of iterations =  3.1

     total cpu time spent up to now is        1.2 secs

     total energy              =    -157.99876663 Ry
     Harris-Foulkes estimate   =    -157.99951863 Ry
     estimated scf accuracy    <       0.02291263 Ry

     iteration #  2     ecut=    26.00 Ry     beta= 0.10
     Davidson diagonalization with overlap
     ethr =  1.91E-04,  avg # of iterations =  1.0

     total cpu time spent up to now is        1.5 secs

     total energy              =    -157.99316110 Ry
     Harris-Foulkes estimate   =    -157.99887372 Ry
     estimated scf accuracy    <       0.01974395 Ry

     iteration #  3     ecut=    26.00 Ry     beta= 0.10
     Davidson diagonalization with overlap
     ethr =  1.65E-04,  avg # of iterations =  1.0

     total cpu time spent up to now is        1.7 secs

     total energy              =    -157.99346112 Ry
     Harris-Foulkes estimate   =    -157.99350183 Ry
     estimated scf accuracy    <       0.00009080 Ry

     iteration #  4     ecut=    26.00 Ry     beta= 0.10
     Davidson diagonalization with overlap
     ethr =  7.57E-07,  avg # of iterations =  4.4

     total cpu time spent up to now is        2.1 secs

     total energy              =    -157.99350517 Ry
     Harris-Foulkes estimate   =    -157.99352314 Ry
     estimated scf accuracy    <       0.00005678 Ry

     iteration #  5     ecut=    26.00 Ry     beta= 0.10
     Davidson diagonalization with overlap
     ethr =  4.73E-07,  avg # of iterations =  1.0

     total cpu time spent up to now is        2.3 secs

     total energy              =    -157.99346305 Ry
     Harris-Foulkes estimate   =    -157.99350636 Ry
     estimated scf accuracy    <       0.00004015 Ry

     iteration #  6     ecut=    26.00 Ry     beta= 0.10
     Davidson diagonalization with overlap
     ethr =  3.35E-07,  avg # of iterations =  2.0

     total cpu time spent up to now is        2.6 secs

     total energy              =    -157.99347278 Ry
     Harris-Foulkes estimate   =    -157.99347283 Ry
     estimated scf accuracy    <       0.00000120 Ry

     iteration #  7     ecut=    26.00 Ry     beta= 0.10
     Davidson diagonalization with overlap
     ethr =  9.96E-09,  avg # of iterations =  1.4

     total cpu time spent up to now is        2.8 secs

     total energy              =    -157.99347260 Ry
     Harris-Foulkes estimate   =    -157.99347284 Ry
     estimated scf accuracy    <       0.00000116 Ry

     iteration #  8     ecut=    26.00 Ry     beta= 0.10
     Davidson diagonalization with overlap
     ethr =  9.64E-09,  avg # of iterations =  1.0

     total cpu time spent up to now is        3.0 secs

     End of self-consistent calculation

          k = 0.1250 0.1250 0.1250 (   991 PWs)   bands (ev):

    -2.8059   3.7791   3.7809   3.7827   8.2873   8.2896   8.2919  10.1283
    10.1303  10.1323

          k = 0.1250 0.1250 0.3750 (   990 PWs)   bands (ev):

    -1.6798   0.5449   4.8476   4.8502   6.9833   6.9865   9.3742   9.3761
    11.1432  11.5420

          k = 0.1250 0.3750 0.3750 (   998 PWs)   bands (ev):

    -0.5625   1.6440   1.6463   3.8158   5.9361   8.0496   8.0527  10.1542
    10.4514  12.4992

          k = 0.3750 0.3750 0.3750 (   991 PWs)   bands (ev):

     0.5466   2.7337   2.7356   2.7375   4.9110   4.9130   4.9149   7.0478
    15.5152  15.5192

          k =-0.1250-0.1250 0.1250 (   991 PWs)   bands (ev):

    -2.8059   3.7794   3.7809   3.7823   8.2878   8.2897   8.2915  10.1287
    10.1303  10.1319

          k =-0.1250 0.1250-0.1250 (   991 PWs)   bands (ev):

    -2.8059   3.7799   3.7809   3.7819   8.2883   8.2896   8.2910  10.1291
    10.1303  10.1314

          k = 0.1250-0.1250-0.1250 (   991 PWs)   bands (ev):

    -2.8059   3.7796   3.7809   3.7822   8.2880   8.2897   8.2913  10.1288
    10.1303  10.1317

          k =-0.1250-0.1250 0.3750 (   990 PWs)   bands (ev):

    -1.6798   0.5449   4.8476   4.8502   6.9834   6.9865   9.3742   9.3761
    11.1432  11.5416

          k =-0.1250 0.1250-0.3750 (   990 PWs)   bands (ev):

    -1.6798   0.5449   4.8483   4.8495   6.9842   6.9856   9.3747   9.3756
    11.1432  11.5425

          k = 0.1250-0.1250-0.3750 (   990 PWs)   bands (ev):

    -1.6798   0.5449   4.8483   4.8495   6.9842   6.9856   9.3747   9.3756
    11.1432  11.5424

          k = 0.3750-0.1250 0.1250 (   990 PWs)   bands (ev):

    -1.6798   0.5449   4.8482   4.8495   6.9842   6.9856   9.3747   9.3756
    11.1432  11.5423

          k =-0.3750-0.1250-0.1250 (   990 PWs)   bands (ev):

    -1.6798   0.5449   4.8477   4.8500   6.9836   6.9862   9.3743   9.3760
    11.1431  11.5420

          k = 0.3750 0.1250-0.1250 (   990 PWs)   bands (ev):

    -1.6798   0.5449   4.8482   4.8495   6.9842   6.9856   9.3747   9.3756
    11.1432  11.5424

          k =-0.3750 0.1250 0.1250 (   990 PWs)   bands (ev):

    -1.6798   0.5449   4.8477   4.8500   6.9836   6.9862   9.3743   9.3760
    11.1432  11.5420

          k =-0.1250 0.3750 0.1250 (   990 PWs)   bands (ev):

    -1.6798   0.5449   4.8487   4.8491   6.9847   6.9851   9.3750   9.3753
    11.1432  11.5426

          k =-0.1250-0.3750-0.1250 (   990 PWs)   bands (ev):

    -1.6798   0.5449   4.8483   4.8495   6.9842   6.9856   9.3748   9.3756
    11.1432  11.5420

          k = 0.1250 0.3750-0.1250 (   990 PWs)   bands (ev):

    -1.6798   0.5449   4.8487   4.8491   6.9847   6.9851   9.3750   9.3753
    11.1432  11.5425

          k = 0.1250-0.3750 0.1250 (   990 PWs)   bands (ev):

    -1.6798   0.5449   4.8483   4.8495   6.9842   6.9856   9.3748   9.3756
    11.1432  11.5419

          k =-0.1250-0.3750 0.3750 (   998 PWs)   bands (ev):

    -0.5625   1.6445   1.6458   3.8158   5.9361   8.0503   8.0520  10.1542
    10.4514  12.4992

          k =-0.1250 0.3750-0.3750 (   998 PWs)   bands (ev):

    -0.5625   1.6445   1.6458   3.8158   5.9361   8.0503   8.0520  10.1542
    10.4514  12.4989

          k = 0.1250-0.3750-0.3750 (   998 PWs)   bands (ev):

    -0.5625   1.6440   1.6463   3.8158   5.9361   8.0496   8.0527  10.1542
    10.4514  12.4990

          k = 0.3750 0.1250-0.3750 (   998 PWs)   bands (ev):

    -0.5625   1.6449   1.6454   3.8158   5.9361   8.0509   8.0514  10.1542
    10.4514  12.4987

          k =-0.3750-0.1250-0.3750 (   998 PWs)   bands (ev):

    -0.5625   1.6445   1.6458   3.8158   5.9361   8.0503   8.0520  10.1542
    10.4514  12.4993

          k = 0.3750-0.1250 0.3750 (   998 PWs)   bands (ev):

    -0.5625   1.6445   1.6458   3.8158   5.9361   8.0503   8.0520  10.1542
    10.4514  12.4984

          k =-0.3750 0.1250 0.3750 (   998 PWs)   bands (ev):

    -0.5625   1.6449   1.6454   3.8158   5.9361   8.0509   8.0514  10.1542
    10.4514  12.4990

          k = 0.3750-0.3750 0.1250 (   998 PWs)   bands (ev):

    -0.5625   1.6445   1.6458   3.8158   5.9361   8.0503   8.0520  10.1542
    10.4514  12.4992

          k =-0.3750-0.3750-0.1250 (   998 PWs)   bands (ev):

    -0.5625   1.6438   1.6465   3.8158   5.9361   8.0493   8.0530  10.1542
    10.4514  12.4982

          k = 0.3750 0.3750-0.1250 (   998 PWs)   bands (ev):

    -0.5625   1.6438   1.6465   3.8158   5.9361   8.0493   8.0530  10.1542
    10.4514  12.4995

          k =-0.3750 0.3750 0.1250 (   998 PWs)   bands (ev):

    -0.5625   1.6445   1.6458   3.8158   5.9361   8.0503   8.0520  10.1542
    10.4515  12.4990

          k =-0.3750-0.3750 0.3750 (   991 PWs)   bands (ev):

     0.5466   2.7340   2.7356   2.7371   4.9114   4.9130   4.9145   7.0478
    15.5148  15.5173

          k =-0.3750 0.3750-0.3750 (   991 PWs)   bands (ev):

     0.5466   2.7345   2.7356   2.7367   4.9119   4.9130   4.9141   7.0478
    15.5161  15.5169

          k = 0.3750-0.3750-0.3750 (   991 PWs)   bands (ev):

     0.5466   2.7342   2.7356   2.7369   4.9116   4.9130   4.9144   7.0478
    15.5152  15.5173

     the Fermi energy is     8.0606 ev

!    total energy              =    -157.99347299 Ry
     Harris-Foulkes estimate   =    -157.99347268 Ry
     estimated scf accuracy    <       0.00000030 Ry

     total all-electron energy =     -1942.564595 Ry

     The total energy is the sum of the following terms:

     one-electron contribution =      12.67495285 Ry
     hartree contribution      =       0.02681249 Ry
     xc contribution           =     -10.36623122 Ry
     ewald contribution        =     -21.61650270 Ry
     one-center paw contrib.   =    -138.71127455 Ry
     smearing contrib. (-TS)   =      -0.00122987 Ry

     convergence has been achieved in   8 iterations

     Forces acting on atoms (cartesian axes, Ry/au):

     atom    1 type  1   force =     0.00005213   -0.00003107    0.00030458
     atom    2 type  1   force =    -0.00006846    0.00000063    0.00033056
     atom    3 type  1   force =    -0.00003718    0.00002169   -0.00035581
     atom    4 type  1   force =     0.00005350    0.00000874   -0.00027933

     Total force =     0.000648     Total SCF correction =     0.000078
     SCF correction compared to forces is large: reduce conv_thr to get better values


     Computing stress (Cartesian axis) and pressure

          total   stress  (Ry/bohr**3)                   (kbar)     P=    1.62
   0.00001101  -0.00000001  -0.00000001          1.62     -0.00     -0.00
  -0.00000001   0.00001100   0.00000001         -0.00      1.62      0.00
  -0.00000001   0.00000001   0.00001096         -0.00      0.00      1.61


     Writing output data file fe_scf_fcc_2.save/

     init_run     :      0.22s CPU      0.22s WALL (       1 calls)
     electrons    :      2.23s CPU      2.39s WALL (       1 calls)
     forces       :      0.04s CPU      0.04s WALL (       1 calls)
     stress       :      0.07s CPU      0.07s WALL (       1 calls)

     Called by init_run:
     wfcinit      :      0.12s CPU      0.12s WALL (       1 calls)
     potinit      :      0.05s CPU      0.05s WALL (       1 calls)
     hinit0       :      0.05s CPU      0.05s WALL (       1 calls)

     Called by electrons:
     c_bands      :      1.59s CPU      1.73s WALL (       9 calls)
     sum_band     :      0.25s CPU      0.27s WALL (       9 calls)
     v_of_rho     :      0.02s CPU      0.02s WALL (       9 calls)
     newd         :      0.02s CPU      0.02s WALL (       9 calls)
     PAW_pot      :      0.38s CPU      0.40s WALL (       9 calls)
     mix_rho      :      0.00s CPU      0.00s WALL (       9 calls)

     Called by c_bands:
     init_us_2    :      0.04s CPU      0.04s WALL (     672 calls)
     cegterg      :      1.53s CPU      1.65s WALL (     288 calls)

     Called by sum_band:
     sum_band:bec :      0.00s CPU      0.00s WALL (     288 calls)
     addusdens    :      0.01s CPU      0.01s WALL (       9 calls)

     Called by *egterg:
     h_psi        :      1.13s CPU      1.23s WALL (     896 calls)
     s_psi        :      0.09s CPU      0.09s WALL (     896 calls)
     g_psi        :      0.00s CPU      0.00s WALL (     576 calls)
     cdiaghg      :      0.13s CPU      0.14s WALL (     832 calls)

     Called by h_psi:
     h_psi:pot    :      1.13s CPU      1.22s WALL (     896 calls)
     h_psi:calbec :      0.14s CPU      0.15s WALL (     896 calls)
     vloc_psi     :      0.90s CPU      0.98s WALL (     896 calls)
     add_vuspsi   :      0.09s CPU      0.09s WALL (     896 calls)

     General routines
     calbec       :      0.23s CPU      0.24s WALL (    1344 calls)
     fft          :      0.02s CPU      0.02s WALL (     141 calls)
     ffts         :      0.00s CPU      0.00s WALL (      18 calls)
     fftw         :      0.98s CPU      1.06s WALL (   17936 calls)
     interpolate  :      0.00s CPU      0.00s WALL (       9 calls)

     Parallel routines
     fft_scatt_xy :      0.11s CPU      0.12s WALL (   18095 calls)
     fft_scatt_yz :      0.50s CPU      0.54s WALL (   18095 calls)

     PWSCF        :      3.00s CPU      3.18s WALL


   This run was terminated on:   7:18: 1  11Mar2020            

=------------------------------------------------------------------------------=
   JOB DONE.
=------------------------------------------------------------------------------=
