
     Program PWSCF v.6.4.1 starts on 11Mar2020 at  6:24:13 

     This program is part of the open-source Quantum ESPRESSO suite
     for quantum simulation of materials; please cite
         "P. Giannozzi et al., J. Phys.:Condens. Matter 21 395502 (2009);
         "P. Giannozzi et al., J. Phys.:Condens. Matter 29 465901 (2017);
          URL http://www.quantum-espresso.org", 
     in publications or presentations arising from this work. More details at
     http://www.quantum-espresso.org/quote

     Parallel version (MPI), running on     4 processors

     MPI processes distributed on     1 nodes
     R & G space division:  proc/nbgrp/npool/nimage =       4
     Reading input from wd/kpoints/file_000152.in
Warning: card &IONS ignored
Warning: card ION_DYNAMICS = 'BFGS', ignored
Warning: card / ignored
Warning: card &CELL ignored
Warning: card CELL_DYNAMICS = 'BFGS', ignored
Warning: card CELL_FACTOR = 2.0, ignored
Warning: card PRESS = 0.0, ignored
Warning: card / ignored

     Current dimensions of program PWSCF are:
     Max number of different atomic species (ntypx) = 10
     Max number of k-points (npk) =  40000
     Max angular momentum in pseudopotentials (lmaxx) =  3
               file Al.pbe-nl-kjpaw_psl.1.0.0.UPF: wavefunction(s)  3S 3P renormalized

     Subspace diagonalization in iterative solution of the eigenvalue problem:
     a serial algorithm will be used


     Parallelization info
     --------------------
     sticks:   dense  smooth     PW     G-vecs:    dense   smooth      PW
     Min         121     121     36                 2046     2006     354
     Max         124     124     38                 2068     2007     357
     Sum         489     489    149                 8217     8025    1419



     bravais-lattice index     =            0
     lattice parameter (alat)  =       7.6356  a.u.
     unit-cell volume          =     445.1737 (a.u.)^3
     number of atoms/cell      =            4
     number of atomic types    =            1
     number of electrons       =        12.00
     number of Kohn-Sham states=           10
     kinetic-energy cutoff     =      26.0000  Ry
     charge density cutoff     =     105.0000  Ry
     convergence threshold     =      1.0E-06
     mixing beta               =       0.1000
     number of iterations used =           10  TF        mixing
     Exchange-correlation      = SLA PW PBX PBC ( 1  4  3  4 0 0)

     celldm(1)=   7.635600  celldm(2)=   0.000000  celldm(3)=   0.000000
     celldm(4)=   0.000000  celldm(5)=   0.000000  celldm(6)=   0.000000

     crystal axes: (cart. coord. in units of alat)
               a(1) = (   1.000000   0.000000   0.000000 )  
               a(2) = (   0.000000   1.000000   0.000000 )  
               a(3) = (   0.000000   0.000000   1.000000 )  

     reciprocal axes: (cart. coord. in units 2 pi/alat)
               b(1) = (  1.000000  0.000000  0.000000 )  
               b(2) = (  0.000000  1.000000  0.000000 )  
               b(3) = (  0.000000  0.000000  1.000000 )  


     PseudoPot. # 1 for Al read from file:
     /opt/pp/Al.pbe-nl-kjpaw_psl.1.0.0.UPF
     MD5 check sum: 1b67f78b73fe58c7924490f171ce8a1e
     Pseudo is Projector augmented-wave + core cor, Zval =  3.0
     Generated using "atomic" code by A. Dal Corso v.6.3
     Shape of augmentation charge: PSQ
     Using radial grid of 1135 points,  4 beta functions with: 
                l(1) =   0
                l(2) =   0
                l(3) =   1
                l(4) =   1
     Q(r) pseudized with 0 coefficients 


     atomic species   valence    mass     pseudopotential
        Al             3.00    26.98200     Al( 1.00)

     No symmetry found



   Cartesian axes

     site n.     atom                  positions (alat units)
         1           Al  tau(   1) = (  -0.0000654   0.0000190   0.0001361  )
         2           Al  tau(   2) = (   0.5001592   0.4996200   0.0001406  )
         3           Al  tau(   3) = (   0.4998143   0.0000610   0.5005910  )
         4           Al  tau(   4) = (  -0.0000400   0.5004374   0.5003674  )

     number of k points=   172  Marzari-Vanderbilt smearing, width (Ry)=  0.0010

     Number of k-points >= 100: set verbosity='high' to print them.

     Dense  grid:     8217 G-vectors     FFT dimensions: (  25,  25,  25)

     Smooth grid:     8025 G-vectors     FFT dimensions: (  25,  25,  25)

     Estimated max dynamical RAM per process >       9.94 MB

     Estimated total dynamical RAM >      39.75 MB

     Initial potential from superposition of free atoms

     starting charge   11.99084, renormalised to   12.00000
     Starting wfcs are   16 randomized atomic wfcs
     Checking if some PAW data can be deallocated... 

     total cpu time spent up to now is        1.2 secs

     Self-consistent Calculation

     iteration #  1     ecut=    26.00 Ry     beta= 0.10
     Davidson diagonalization with overlap
     ethr =  1.00E-02,  avg # of iterations =  3.3

     Threshold (ethr) on eigenvalues was too large:
     Diagonalizing with lowered threshold

     Davidson diagonalization with overlap
     ethr =  2.01E-04,  avg # of iterations =  3.0

     total cpu time spent up to now is        3.9 secs

     total energy              =    -158.01072164 Ry
     Harris-Foulkes estimate   =    -158.01154849 Ry
     estimated scf accuracy    <       0.02339934 Ry

     iteration #  2     ecut=    26.00 Ry     beta= 0.10
     Davidson diagonalization with overlap
     ethr =  1.95E-04,  avg # of iterations =  1.0

     total cpu time spent up to now is        4.8 secs

     total energy              =    -158.00459329 Ry
     Harris-Foulkes estimate   =    -158.01083243 Ry
     estimated scf accuracy    <       0.02017408 Ry

     iteration #  3     ecut=    26.00 Ry     beta= 0.10
     Davidson diagonalization with overlap
     ethr =  1.68E-04,  avg # of iterations =  1.0

     total cpu time spent up to now is        5.8 secs

     total energy              =    -158.00492680 Ry
     Harris-Foulkes estimate   =    -158.00497059 Ry
     estimated scf accuracy    <       0.00009291 Ry

     iteration #  4     ecut=    26.00 Ry     beta= 0.10
     Davidson diagonalization with overlap
     ethr =  7.74E-07,  avg # of iterations =  4.3

     total cpu time spent up to now is        7.6 secs

     total energy              =    -158.00498580 Ry
     Harris-Foulkes estimate   =    -158.00499951 Ry
     estimated scf accuracy    <       0.00005842 Ry

     iteration #  5     ecut=    26.00 Ry     beta= 0.10
     Davidson diagonalization with overlap
     ethr =  4.87E-07,  avg # of iterations =  1.1

     total cpu time spent up to now is        8.6 secs

     total energy              =    -158.00494252 Ry
     Harris-Foulkes estimate   =    -158.00498735 Ry
     estimated scf accuracy    <       0.00004446 Ry

     iteration #  6     ecut=    26.00 Ry     beta= 0.10
     Davidson diagonalization with overlap
     ethr =  3.71E-07,  avg # of iterations =  2.0

     total cpu time spent up to now is        9.8 secs

     total energy              =    -158.00495209 Ry
     Harris-Foulkes estimate   =    -158.00495213 Ry
     estimated scf accuracy    <       0.00000113 Ry

     iteration #  7     ecut=    26.00 Ry     beta= 0.10
     Davidson diagonalization with overlap
     ethr =  9.41E-09,  avg # of iterations =  1.4

     total cpu time spent up to now is       10.8 secs

     total energy              =    -158.00495161 Ry
     Harris-Foulkes estimate   =    -158.00495215 Ry
     estimated scf accuracy    <       0.00000114 Ry

     iteration #  8     ecut=    26.00 Ry     beta= 0.10
     Davidson diagonalization with overlap
     ethr =  9.41E-09,  avg # of iterations =  1.0

     total cpu time spent up to now is       11.8 secs

     End of self-consistent calculation

     Number of k-points >= 100: set verbosity='high' to print the bands.

     the Fermi energy is     7.9388 ev

!    total energy              =    -158.00495207 Ry
     Harris-Foulkes estimate   =    -158.00495162 Ry
     estimated scf accuracy    <       0.00000094 Ry

     total all-electron energy =     -1942.576074 Ry

     The total energy is the sum of the following terms:

     one-electron contribution =      12.65661776 Ry
     hartree contribution      =       0.02406191 Ry
     xc contribution           =     -10.36198796 Ry
     ewald contribution        =     -21.61650270 Ry
     one-center paw contrib.   =    -138.70714262 Ry
     smearing contrib. (-TS)   =       0.00000152 Ry

     convergence has been achieved in   8 iterations

     Forces acting on atoms (cartesian axes, Ry/au):

     atom    1 type  1   force =     0.00005255   -0.00003901    0.00009892
     atom    2 type  1   force =    -0.00013281    0.00011118    0.00011544
     atom    3 type  1   force =     0.00002553    0.00006886   -0.00020257
     atom    4 type  1   force =     0.00005473   -0.00014104   -0.00001179

     Total force =     0.000356     Total SCF correction =     0.000165
     SCF correction compared to forces is large: reduce conv_thr to get better values


     Computing stress (Cartesian axis) and pressure

          total   stress  (Ry/bohr**3)                   (kbar)     P=   -7.80
  -0.00005284   0.00000019   0.00000004         -7.77      0.03      0.01
   0.00000019  -0.00005255   0.00000014          0.03     -7.73      0.02
   0.00000004   0.00000014  -0.00005361          0.01      0.02     -7.89


     Writing output data file fe_scf_fcc_2.save/

     init_run     :      0.69s CPU      0.72s WALL (       1 calls)
     electrons    :      9.94s CPU     10.66s WALL (       1 calls)
     forces       :      0.16s CPU      0.16s WALL (       1 calls)
     stress       :      0.30s CPU      0.30s WALL (       1 calls)

     Called by init_run:
     wfcinit      :      0.60s CPU      0.62s WALL (       1 calls)
     potinit      :      0.05s CPU      0.05s WALL (       1 calls)
     hinit0       :      0.04s CPU      0.05s WALL (       1 calls)

     Called by electrons:
     c_bands      :      8.33s CPU      8.92s WALL (       9 calls)
     sum_band     :      1.24s CPU      1.36s WALL (       9 calls)
     v_of_rho     :      0.02s CPU      0.02s WALL (       9 calls)
     newd         :      0.01s CPU      0.02s WALL (       9 calls)
     PAW_pot      :      0.38s CPU      0.38s WALL (       9 calls)
     mix_rho      :      0.00s CPU      0.00s WALL (       9 calls)

     Called by c_bands:
     init_us_2    :      0.18s CPU      0.19s WALL (    3612 calls)
     cegterg      :      7.99s CPU      8.56s WALL (    1548 calls)

     Called by sum_band:
     sum_band:bec :      0.01s CPU      0.01s WALL (    1548 calls)
     addusdens    :      0.01s CPU      0.01s WALL (       9 calls)

     Called by *egterg:
     h_psi        :      5.93s CPU      6.35s WALL (    4834 calls)
     s_psi        :      0.42s CPU      0.46s WALL (    4834 calls)
     g_psi        :      0.02s CPU      0.02s WALL (    3114 calls)
     cdiaghg      :      0.69s CPU      0.73s WALL (    4490 calls)

     Called by h_psi:
     h_psi:pot    :      5.91s CPU      6.33s WALL (    4834 calls)
     h_psi:calbec :      0.71s CPU      0.77s WALL (    4834 calls)
     vloc_psi     :      4.77s CPU      5.10s WALL (    4834 calls)
     add_vuspsi   :      0.42s CPU      0.46s WALL (    4834 calls)

     General routines
     calbec       :      1.15s CPU      1.24s WALL (    7242 calls)
     fft          :      0.02s CPU      0.02s WALL (     141 calls)
     ffts         :      0.00s CPU      0.00s WALL (      18 calls)
     fftw         :      5.22s CPU      5.60s WALL (   96624 calls)
     interpolate  :      0.00s CPU      0.00s WALL (       9 calls)

     Parallel routines
     fft_scatt_xy :      0.60s CPU      0.64s WALL (   96783 calls)
     fft_scatt_yz :      2.67s CPU      2.88s WALL (   96783 calls)

     PWSCF        :     11.60s CPU     12.40s WALL


   This run was terminated on:   6:24:25  11Mar2020            

=------------------------------------------------------------------------------=
   JOB DONE.
=------------------------------------------------------------------------------=
