
     Program PWSCF v.6.4.1 starts on 11Mar2020 at  7:23: 9 

     This program is part of the open-source Quantum ESPRESSO suite
     for quantum simulation of materials; please cite
         "P. Giannozzi et al., J. Phys.:Condens. Matter 21 395502 (2009);
         "P. Giannozzi et al., J. Phys.:Condens. Matter 29 465901 (2017);
          URL http://www.quantum-espresso.org", 
     in publications or presentations arising from this work. More details at
     http://www.quantum-espresso.org/quote

     Parallel version (MPI), running on     4 processors

     MPI processes distributed on     1 nodes
     R & G space division:  proc/nbgrp/npool/nimage =       4
     Reading input from wd/kpoints/file_000203.in
Warning: card &IONS ignored
Warning: card ION_DYNAMICS = 'BFGS', ignored
Warning: card / ignored
Warning: card &CELL ignored
Warning: card CELL_DYNAMICS = 'BFGS', ignored
Warning: card CELL_FACTOR = 2.0, ignored
Warning: card PRESS = 0.0, ignored
Warning: card / ignored

     Current dimensions of program PWSCF are:
     Max number of different atomic species (ntypx) = 10
     Max number of k-points (npk) =  40000
     Max angular momentum in pseudopotentials (lmaxx) =  3
               file Al.pbe-nl-kjpaw_psl.1.0.0.UPF: wavefunction(s)  3S 3P renormalized

     Subspace diagonalization in iterative solution of the eigenvalue problem:
     a serial algorithm will be used


     Parallelization info
     --------------------
     sticks:   dense  smooth     PW     G-vecs:    dense   smooth      PW
     Min         121     121     36                 2046     2006     354
     Max         124     124     38                 2068     2007     357
     Sum         489     489    149                 8217     8025    1419



     bravais-lattice index     =            0
     lattice parameter (alat)  =       7.6356  a.u.
     unit-cell volume          =     445.1737 (a.u.)^3
     number of atoms/cell      =            4
     number of atomic types    =            1
     number of electrons       =        12.00
     number of Kohn-Sham states=           10
     kinetic-energy cutoff     =      26.0000  Ry
     charge density cutoff     =     105.0000  Ry
     convergence threshold     =      1.0E-06
     mixing beta               =       0.1000
     number of iterations used =           10  TF        mixing
     Exchange-correlation      = SLA PW PBX PBC ( 1  4  3  4 0 0)

     celldm(1)=   7.635600  celldm(2)=   0.000000  celldm(3)=   0.000000
     celldm(4)=   0.000000  celldm(5)=   0.000000  celldm(6)=   0.000000

     crystal axes: (cart. coord. in units of alat)
               a(1) = (   1.000000   0.000000   0.000000 )  
               a(2) = (   0.000000   1.000000   0.000000 )  
               a(3) = (   0.000000   0.000000   1.000000 )  

     reciprocal axes: (cart. coord. in units 2 pi/alat)
               b(1) = (  1.000000  0.000000  0.000000 )  
               b(2) = (  0.000000  1.000000  0.000000 )  
               b(3) = (  0.000000  0.000000  1.000000 )  


     PseudoPot. # 1 for Al read from file:
     /opt/pp/Al.pbe-nl-kjpaw_psl.1.0.0.UPF
     MD5 check sum: 1b67f78b73fe58c7924490f171ce8a1e
     Pseudo is Projector augmented-wave + core cor, Zval =  3.0
     Generated using "atomic" code by A. Dal Corso v.6.3
     Shape of augmentation charge: PSQ
     Using radial grid of 1135 points,  4 beta functions with: 
                l(1) =   0
                l(2) =   0
                l(3) =   1
                l(4) =   1
     Q(r) pseudized with 0 coefficients 


     atomic species   valence    mass     pseudopotential
        Al             3.00    26.98200     Al( 1.00)

     No symmetry found



   Cartesian axes

     site n.     atom                  positions (alat units)
         1           Al  tau(   1) = (  -0.0000654   0.0000190   0.0001361  )
         2           Al  tau(   2) = (   0.5001592   0.4996200   0.0001406  )
         3           Al  tau(   3) = (   0.4998143   0.0000610   0.5005910  )
         4           Al  tau(   4) = (  -0.0000400   0.5004374   0.5003674  )

     number of k points=   365  Marzari-Vanderbilt smearing, width (Ry)=  0.0020

     Number of k-points >= 100: set verbosity='high' to print them.

     Dense  grid:     8217 G-vectors     FFT dimensions: (  25,  25,  25)

     Smooth grid:     8025 G-vectors     FFT dimensions: (  25,  25,  25)

     Estimated max dynamical RAM per process >      17.27 MB

     Estimated total dynamical RAM >      69.08 MB

     Initial potential from superposition of free atoms

     starting charge   11.99084, renormalised to   12.00000
     Starting wfcs are   16 randomized atomic wfcs
     Checking if some PAW data can be deallocated... 

     total cpu time spent up to now is        2.0 secs

     Self-consistent Calculation

     iteration #  1     ecut=    26.00 Ry     beta= 0.10
     Davidson diagonalization with overlap
     ethr =  1.00E-02,  avg # of iterations =  3.2

     Threshold (ethr) on eigenvalues was too large:
     Diagonalizing with lowered threshold

     Davidson diagonalization with overlap
     ethr =  1.97E-04,  avg # of iterations =  3.2

     total cpu time spent up to now is        8.1 secs

     total energy              =    -158.01444522 Ry
     Harris-Foulkes estimate   =    -158.01524456 Ry
     estimated scf accuracy    <       0.02292768 Ry

     iteration #  2     ecut=    26.00 Ry     beta= 0.10
     Davidson diagonalization with overlap
     ethr =  1.91E-04,  avg # of iterations =  1.0

     total cpu time spent up to now is       10.2 secs

     total energy              =    -158.00853109 Ry
     Harris-Foulkes estimate   =    -158.01455209 Ry
     estimated scf accuracy    <       0.01974244 Ry

     iteration #  3     ecut=    26.00 Ry     beta= 0.10
     Davidson diagonalization with overlap
     ethr =  1.65E-04,  avg # of iterations =  1.0

     total cpu time spent up to now is       12.3 secs

     total energy              =    -158.00887507 Ry
     Harris-Foulkes estimate   =    -158.00891523 Ry
     estimated scf accuracy    <       0.00009154 Ry

     iteration #  4     ecut=    26.00 Ry     beta= 0.10
     Davidson diagonalization with overlap
     ethr =  7.63E-07,  avg # of iterations =  5.4

     total cpu time spent up to now is       16.6 secs

     total energy              =    -158.00893120 Ry
     Harris-Foulkes estimate   =    -158.00894342 Ry
     estimated scf accuracy    <       0.00005897 Ry

     iteration #  5     ecut=    26.00 Ry     beta= 0.10
     Davidson diagonalization with overlap
     ethr =  4.91E-07,  avg # of iterations =  1.1

     total cpu time spent up to now is       18.7 secs

     total energy              =    -158.00889030 Ry
     Harris-Foulkes estimate   =    -158.00893272 Ry
     estimated scf accuracy    <       0.00004484 Ry

     iteration #  6     ecut=    26.00 Ry     beta= 0.10
     Davidson diagonalization with overlap
     ethr =  3.74E-07,  avg # of iterations =  2.0

     total cpu time spent up to now is       21.4 secs

     total energy              =    -158.00890008 Ry
     Harris-Foulkes estimate   =    -158.00890017 Ry
     estimated scf accuracy    <       0.00000130 Ry

     iteration #  7     ecut=    26.00 Ry     beta= 0.10
     Davidson diagonalization with overlap
     ethr =  1.08E-08,  avg # of iterations =  1.4

     total cpu time spent up to now is       23.5 secs

     total energy              =    -158.00889927 Ry
     Harris-Foulkes estimate   =    -158.00890015 Ry
     estimated scf accuracy    <       0.00000132 Ry

     iteration #  8     ecut=    26.00 Ry     beta= 0.10
     Davidson diagonalization with overlap
     ethr =  1.08E-08,  avg # of iterations =  1.0

     total cpu time spent up to now is       25.6 secs

     End of self-consistent calculation

     Number of k-points >= 100: set verbosity='high' to print the bands.

     the Fermi energy is     7.8960 ev

!    total energy              =    -158.00889968 Ry
     Harris-Foulkes estimate   =    -158.00889930 Ry
     estimated scf accuracy    <       0.00000075 Ry

     total all-electron energy =     -1942.580022 Ry

     The total energy is the sum of the following terms:

     one-electron contribution =      12.65776383 Ry
     hartree contribution      =       0.02435609 Ry
     xc contribution           =     -10.36403304 Ry
     ewald contribution        =     -21.61650270 Ry
     one-center paw contrib.   =    -138.71039213 Ry
     smearing contrib. (-TS)   =      -0.00009174 Ry

     convergence has been achieved in   8 iterations

     Forces acting on atoms (cartesian axes, Ry/au):

     atom    1 type  1   force =     0.00004033   -0.00002298    0.00006604
     atom    2 type  1   force =    -0.00016124    0.00023340    0.00006818
     atom    3 type  1   force =     0.00008435    0.00004727   -0.00017652
     atom    4 type  1   force =     0.00003656   -0.00025769    0.00004229

     Total force =     0.000449     Total SCF correction =     0.000135
     SCF correction compared to forces is large: reduce conv_thr to get better values


     Computing stress (Cartesian axis) and pressure

          total   stress  (Ry/bohr**3)                   (kbar)     P=   -1.57
  -0.00001065  -0.00000000   0.00000000         -1.57     -0.00      0.00
  -0.00000000  -0.00001062   0.00000002         -0.00     -1.56      0.00
   0.00000000   0.00000002  -0.00001079          0.00      0.00     -1.59


     Writing output data file fe_scf_fcc_2.save/

     init_run     :      1.36s CPU      1.49s WALL (       1 calls)
     electrons    :     21.75s CPU     23.62s WALL (       1 calls)
     forces       :      0.36s CPU      0.36s WALL (       1 calls)
     stress       :      0.62s CPU      0.62s WALL (       1 calls)

     Called by init_run:
     wfcinit      :      1.27s CPU      1.38s WALL (       1 calls)
     potinit      :      0.04s CPU      0.05s WALL (       1 calls)
     hinit0       :      0.05s CPU      0.05s WALL (       1 calls)

     Called by electrons:
     c_bands      :     18.70s CPU     20.22s WALL (       9 calls)
     sum_band     :      2.66s CPU      2.99s WALL (       9 calls)
     v_of_rho     :      0.02s CPU      0.02s WALL (       9 calls)
     newd         :      0.02s CPU      0.02s WALL (       9 calls)
     PAW_pot      :      0.37s CPU      0.42s WALL (       9 calls)
     mix_rho      :      0.00s CPU      0.00s WALL (       9 calls)

     Called by c_bands:
     init_us_2    :      0.42s CPU      0.46s WALL (    7665 calls)
     cegterg      :     17.93s CPU     19.39s WALL (    3285 calls)

     Called by sum_band:
     sum_band:bec :      0.02s CPU      0.02s WALL (    3285 calls)
     addusdens    :      0.01s CPU      0.01s WALL (       9 calls)

     Called by *egterg:
     h_psi        :     13.12s CPU     14.20s WALL (   10708 calls)
     s_psi        :      1.01s CPU      1.10s WALL (   10708 calls)
     g_psi        :      0.05s CPU      0.05s WALL (    7058 calls)
     cdiaghg      :      1.70s CPU      1.83s WALL (    9978 calls)

     Called by h_psi:
     h_psi:pot    :     13.08s CPU     14.16s WALL (   10708 calls)
     h_psi:calbec :      1.58s CPU      1.72s WALL (   10708 calls)
     vloc_psi     :     10.47s CPU     11.31s WALL (   10708 calls)
     add_vuspsi   :      1.02s CPU      1.11s WALL (   10708 calls)

     General routines
     calbec       :      2.55s CPU      2.77s WALL (   15818 calls)
     fft          :      0.02s CPU      0.02s WALL (     141 calls)
     ffts         :      0.00s CPU      0.00s WALL (      18 calls)
     fftw         :     11.32s CPU     12.30s WALL (  205706 calls)
     interpolate  :      0.00s CPU      0.00s WALL (       9 calls)

     Parallel routines
     fft_scatt_xy :      1.33s CPU      1.45s WALL (  205865 calls)
     fft_scatt_yz :      5.39s CPU      5.91s WALL (  205865 calls)

     PWSCF        :     24.72s CPU     26.82s WALL


   This run was terminated on:   7:23:36  11Mar2020            

=------------------------------------------------------------------------------=
   JOB DONE.
=------------------------------------------------------------------------------=
