
     Program PWSCF v.6.4.1 starts on 24Feb2020 at 16: 1:12 

     This program is part of the open-source Quantum ESPRESSO suite
     for quantum simulation of materials; please cite
         "P. Giannozzi et al., J. Phys.:Condens. Matter 21 395502 (2009);
         "P. Giannozzi et al., J. Phys.:Condens. Matter 29 465901 (2017);
          URL http://www.quantum-espresso.org", 
     in publications or presentations arising from this work. More details at
     http://www.quantum-espresso.org/quote

     Parallel version (MPI), running on     4 processors

     MPI processes distributed on     1 nodes
     R & G space division:  proc/nbgrp/npool/nimage =       4
     Reading input from /cloud/Code/python/py_pwscf_converge/src/example2/wd/runpwscf/file_10230.in
Warning: card &IONS ignored
Warning: card ION_DYNAMICS = 'BFGS', ignored
Warning: card / ignored
Warning: card &CELL ignored
Warning: card CELL_DYNAMICS = 'BFGS', ignored
Warning: card CELL_FACTOR = 2.0, ignored
Warning: card PRESS = 0.0, ignored
Warning: card / ignored

     Current dimensions of program PWSCF are:
     Max number of different atomic species (ntypx) = 10
     Max number of k-points (npk) =  40000
     Max angular momentum in pseudopotentials (lmaxx) =  3
               file Al.pbe-nl-kjpaw_psl.1.0.0.UPF: wavefunction(s)  3S 3P renormalized

     Subspace diagonalization in iterative solution of the eigenvalue problem:
     a serial algorithm will be used


     Parallelization info
     --------------------
     sticks:   dense  smooth     PW     G-vecs:    dense   smooth      PW
     Min         115     115     70                 1873     1873     893
     Max         117     117     72                 1875     1875     894
     Sum         465     465    285                 7497     7497    3575



     bravais-lattice index     =            0
     lattice parameter (alat)  =       7.6356  a.u.
     unit-cell volume          =     445.1737 (a.u.)^3
     number of atoms/cell      =            4
     number of atomic types    =            1
     number of electrons       =        12.00
     number of Kohn-Sham states=           10
     kinetic-energy cutoff     =      50.0000  Ry
     charge density cutoff     =     100.0000  Ry
     convergence threshold     =      1.0E-06
     mixing beta               =       0.1000
     number of iterations used =           10  TF        mixing
     Exchange-correlation      = SLA PW PBX PBC ( 1  4  3  4 0 0)

     celldm(1)=   7.635600  celldm(2)=   0.000000  celldm(3)=   0.000000
     celldm(4)=   0.000000  celldm(5)=   0.000000  celldm(6)=   0.000000

     crystal axes: (cart. coord. in units of alat)
               a(1) = (   1.000000   0.000000   0.000000 )  
               a(2) = (   0.000000   1.000000   0.000000 )  
               a(3) = (   0.000000   0.000000   1.000000 )  

     reciprocal axes: (cart. coord. in units 2 pi/alat)
               b(1) = (  1.000000  0.000000  0.000000 )  
               b(2) = (  0.000000  1.000000  0.000000 )  
               b(3) = (  0.000000  0.000000  1.000000 )  


     PseudoPot. # 1 for Al read from file:
     /opt/pp/Al.pbe-nl-kjpaw_psl.1.0.0.UPF
     MD5 check sum: 1b67f78b73fe58c7924490f171ce8a1e
     Pseudo is Projector augmented-wave + core cor, Zval =  3.0
     Generated using "atomic" code by A. Dal Corso v.6.3
     Shape of augmentation charge: PSQ
     Using radial grid of 1135 points,  4 beta functions with: 
                l(1) =   0
                l(2) =   0
                l(3) =   1
                l(4) =   1
     Q(r) pseudized with 0 coefficients 


     atomic species   valence    mass     pseudopotential
        Al             3.00    26.98200     Al( 1.00)

     No symmetry found



   Cartesian axes

     site n.     atom                  positions (alat units)
         1           Al  tau(   1) = (  -0.0000654   0.0000190   0.0001361  )
         2           Al  tau(   2) = (   0.5001592   0.4996200   0.0001406  )
         3           Al  tau(   3) = (   0.4998143   0.0000610   0.5005910  )
         4           Al  tau(   4) = (  -0.0000400   0.5004374   0.5003674  )

     number of k points=   172  Marzari-Vanderbilt smearing, width (Ry)=  0.0010

     Number of k-points >= 100: set verbosity='high' to print them.

     Dense  grid:     7497 G-vectors     FFT dimensions: (  25,  25,  25)

     Estimated max dynamical RAM per process >      20.86 MB

     Estimated total dynamical RAM >      83.43 MB

     Initial potential from superposition of free atoms

     starting charge   11.99084, renormalised to   12.00000
     Starting wfcs are   16 randomized atomic wfcs
     Checking if some PAW data can be deallocated... 

     total cpu time spent up to now is        1.7 secs

     Self-consistent Calculation

     iteration #  1     ecut=    50.00 Ry     beta= 0.10
     Davidson diagonalization with overlap
     ethr =  1.00E-02,  avg # of iterations =  3.4

     Threshold (ethr) on eigenvalues was too large:
     Diagonalizing with lowered threshold

     Davidson diagonalization with overlap
     ethr =  2.02E-04,  avg # of iterations =  3.1

     total cpu time spent up to now is        6.3 secs

     total energy              =    -158.01185186 Ry
     Harris-Foulkes estimate   =    -158.01267635 Ry
     estimated scf accuracy    <       0.02339144 Ry

     iteration #  2     ecut=    50.00 Ry     beta= 0.10
     Davidson diagonalization with overlap
     ethr =  1.95E-04,  avg # of iterations =  1.0

     total cpu time spent up to now is        7.8 secs

     total energy              =    -158.00572095 Ry
     Harris-Foulkes estimate   =    -158.01195703 Ry
     estimated scf accuracy    <       0.02018316 Ry

     iteration #  3     ecut=    50.00 Ry     beta= 0.10
     Davidson diagonalization with overlap
     ethr =  1.68E-04,  avg # of iterations =  1.0

     total cpu time spent up to now is        9.3 secs

     total energy              =    -158.00607063 Ry
     Harris-Foulkes estimate   =    -158.00610951 Ry
     estimated scf accuracy    <       0.00008553 Ry

     iteration #  4     ecut=    50.00 Ry     beta= 0.10
     Davidson diagonalization with overlap
     ethr =  7.13E-07,  avg # of iterations =  4.3

     total cpu time spent up to now is       12.3 secs

     total energy              =    -158.00613280 Ry
     Harris-Foulkes estimate   =    -158.00614638 Ry
     estimated scf accuracy    <       0.00005809 Ry

     iteration #  5     ecut=    50.00 Ry     beta= 0.10
     Davidson diagonalization with overlap
     ethr =  4.84E-07,  avg # of iterations =  1.0

     total cpu time spent up to now is       13.8 secs

     total energy              =    -158.00609000 Ry
     Harris-Foulkes estimate   =    -158.00613444 Ry
     estimated scf accuracy    <       0.00004359 Ry

     iteration #  6     ecut=    50.00 Ry     beta= 0.10
     Davidson diagonalization with overlap
     ethr =  3.63E-07,  avg # of iterations =  2.0

     total cpu time spent up to now is       15.8 secs

     total energy              =    -158.00609979 Ry
     Harris-Foulkes estimate   =    -158.00609981 Ry
     estimated scf accuracy    <       0.00000114 Ry

     iteration #  7     ecut=    50.00 Ry     beta= 0.10
     Davidson diagonalization with overlap
     ethr =  9.53E-09,  avg # of iterations =  1.4

     total cpu time spent up to now is       17.3 secs

     total energy              =    -158.00609921 Ry
     Harris-Foulkes estimate   =    -158.00609986 Ry
     estimated scf accuracy    <       0.00000116 Ry

     iteration #  8     ecut=    50.00 Ry     beta= 0.10
     Davidson diagonalization with overlap
     ethr =  9.53E-09,  avg # of iterations =  1.0

     total cpu time spent up to now is       18.9 secs

     End of self-consistent calculation

     Number of k-points >= 100: set verbosity='high' to print the bands.

     the Fermi energy is     7.9358 ev

!    total energy              =    -158.00609984 Ry
     Harris-Foulkes estimate   =    -158.00609922 Ry
     estimated scf accuracy    <       0.00000088 Ry

     total all-electron energy =     -1942.577222 Ry

     The total energy is the sum of the following terms:

     one-electron contribution =      12.65449281 Ry
     hartree contribution      =       0.02405600 Ry
     xc contribution           =     -10.36183343 Ry
     ewald contribution        =     -21.61650270 Ry
     one-center paw contrib.   =    -138.70631321 Ry
     smearing contrib. (-TS)   =       0.00000068 Ry

     convergence has been achieved in   8 iterations

     Forces acting on atoms (cartesian axes, Ry/au):

     atom    1 type  1   force =     0.00004982   -0.00003570    0.00009581
     atom    2 type  1   force =    -0.00012625    0.00010787    0.00011145
     atom    3 type  1   force =     0.00002541    0.00006356   -0.00019410
     atom    4 type  1   force =     0.00005103   -0.00013573   -0.00001315

     Total force =     0.000341     Total SCF correction =     0.000150
     SCF correction compared to forces is large: reduce conv_thr to get better values


     Computing stress (Cartesian axis) and pressure

          total   stress  (Ry/bohr**3)                   (kbar)     P=   -7.16
  -0.00004853   0.00000019   0.00000004         -7.14      0.03      0.01
   0.00000019  -0.00004824   0.00000014          0.03     -7.10      0.02
   0.00000004   0.00000014  -0.00004931          0.01      0.02     -7.25


     Writing output data file fe_scf_fcc_2.save/

     init_run     :      1.23s CPU      1.29s WALL (       1 calls)
     electrons    :     16.42s CPU     17.18s WALL (       1 calls)
     forces       :      0.39s CPU      0.40s WALL (       1 calls)
     stress       :      0.71s CPU      0.71s WALL (       1 calls)

     Called by init_run:
     wfcinit      :      1.11s CPU      1.17s WALL (       1 calls)
     potinit      :      0.05s CPU      0.05s WALL (       1 calls)
     hinit0       :      0.06s CPU      0.07s WALL (       1 calls)

     Called by electrons:
     c_bands      :     14.11s CPU     14.72s WALL (       9 calls)
     sum_band     :      1.95s CPU      2.09s WALL (       9 calls)
     v_of_rho     :      0.02s CPU      0.02s WALL (       9 calls)
     newd         :      0.01s CPU      0.01s WALL (       9 calls)
     PAW_pot      :      0.37s CPU      0.37s WALL (       9 calls)
     mix_rho      :      0.00s CPU      0.00s WALL (       9 calls)

     Called by c_bands:
     init_us_2    :      0.44s CPU      0.46s WALL (    3612 calls)
     cegterg      :     13.30s CPU     13.88s WALL (    1548 calls)

     Called by sum_band:
     sum_band:bec :      0.01s CPU      0.01s WALL (    1548 calls)
     addusdens    :      0.01s CPU      0.01s WALL (       9 calls)

     Called by *egterg:
     h_psi        :      8.79s CPU      9.22s WALL (    4845 calls)
     s_psi        :      1.00s CPU      1.05s WALL (    4845 calls)
     g_psi        :      0.06s CPU      0.06s WALL (    3125 calls)
     cdiaghg      :      0.67s CPU      0.69s WALL (    4501 calls)

     Called by h_psi:
     h_psi:pot    :      8.75s CPU      9.18s WALL (    4845 calls)
     h_psi:calbec :      1.73s CPU      1.81s WALL (    4845 calls)
     vloc_psi     :      6.01s CPU      6.30s WALL (    4845 calls)
     add_vuspsi   :      1.00s CPU      1.05s WALL (    4845 calls)

     General routines
     calbec       :      2.90s CPU      3.04s WALL (    7253 calls)
     fft          :      0.01s CPU      0.02s WALL (     125 calls)
     ffts         :      0.00s CPU      0.00s WALL (       9 calls)
     fftw         :      6.61s CPU      6.96s WALL (   97246 calls)

     Parallel routines
     fft_scatt_xy :      0.61s CPU      0.65s WALL (   97380 calls)
     fft_scatt_yz :      3.77s CPU      3.99s WALL (   97380 calls)

     PWSCF        :     19.22s CPU     20.30s WALL


   This run was terminated on:  16: 1:32  24Feb2020            

=------------------------------------------------------------------------------=
   JOB DONE.
=------------------------------------------------------------------------------=
