
     Program PWSCF v.6.4.1 starts on 24Feb2020 at 16: 2:32 

     This program is part of the open-source Quantum ESPRESSO suite
     for quantum simulation of materials; please cite
         "P. Giannozzi et al., J. Phys.:Condens. Matter 21 395502 (2009);
         "P. Giannozzi et al., J. Phys.:Condens. Matter 29 465901 (2017);
          URL http://www.quantum-espresso.org", 
     in publications or presentations arising from this work. More details at
     http://www.quantum-espresso.org/quote

     Parallel version (MPI), running on     4 processors

     MPI processes distributed on     1 nodes
     R & G space division:  proc/nbgrp/npool/nimage =       4
     Reading input from /cloud/Code/python/py_pwscf_converge/src/example2/wd/runpwscf/file_10234.in
Warning: card &IONS ignored
Warning: card ION_DYNAMICS = 'BFGS', ignored
Warning: card / ignored
Warning: card &CELL ignored
Warning: card CELL_DYNAMICS = 'BFGS', ignored
Warning: card CELL_FACTOR = 2.0, ignored
Warning: card PRESS = 0.0, ignored
Warning: card / ignored

     Current dimensions of program PWSCF are:
     Max number of different atomic species (ntypx) = 10
     Max number of k-points (npk) =  40000
     Max angular momentum in pseudopotentials (lmaxx) =  3
               file Al.pbe-nl-kjpaw_psl.1.0.0.UPF: wavefunction(s)  3S 3P renormalized

     Subspace diagonalization in iterative solution of the eigenvalue problem:
     a serial algorithm will be used


     Parallelization info
     --------------------
     sticks:   dense  smooth     PW     G-vecs:    dense   smooth      PW
     Min         115     115     70                 1873     1873     893
     Max         117     117     72                 1875     1875     894
     Sum         465     465    285                 7497     7497    3575



     bravais-lattice index     =            0
     lattice parameter (alat)  =       7.6356  a.u.
     unit-cell volume          =     445.1737 (a.u.)^3
     number of atoms/cell      =            4
     number of atomic types    =            1
     number of electrons       =        12.00
     number of Kohn-Sham states=           10
     kinetic-energy cutoff     =      50.0000  Ry
     charge density cutoff     =     100.0000  Ry
     convergence threshold     =      1.0E-06
     mixing beta               =       0.1000
     number of iterations used =           10  TF        mixing
     Exchange-correlation      = SLA PW PBX PBC ( 1  4  3  4 0 0)

     celldm(1)=   7.635600  celldm(2)=   0.000000  celldm(3)=   0.000000
     celldm(4)=   0.000000  celldm(5)=   0.000000  celldm(6)=   0.000000

     crystal axes: (cart. coord. in units of alat)
               a(1) = (   1.000000   0.000000   0.000000 )  
               a(2) = (   0.000000   1.000000   0.000000 )  
               a(3) = (   0.000000   0.000000   1.000000 )  

     reciprocal axes: (cart. coord. in units 2 pi/alat)
               b(1) = (  1.000000  0.000000  0.000000 )  
               b(2) = (  0.000000  1.000000  0.000000 )  
               b(3) = (  0.000000  0.000000  1.000000 )  


     PseudoPot. # 1 for Al read from file:
     /opt/pp/Al.pbe-nl-kjpaw_psl.1.0.0.UPF
     MD5 check sum: 1b67f78b73fe58c7924490f171ce8a1e
     Pseudo is Projector augmented-wave + core cor, Zval =  3.0
     Generated using "atomic" code by A. Dal Corso v.6.3
     Shape of augmentation charge: PSQ
     Using radial grid of 1135 points,  4 beta functions with: 
                l(1) =   0
                l(2) =   0
                l(3) =   1
                l(4) =   1
     Q(r) pseudized with 0 coefficients 


     atomic species   valence    mass     pseudopotential
        Al             3.00    26.98200     Al( 1.00)

     No symmetry found



   Cartesian axes

     site n.     atom                  positions (alat units)
         1           Al  tau(   1) = (  -0.0000654   0.0000190   0.0001361  )
         2           Al  tau(   2) = (   0.5001592   0.4996200   0.0001406  )
         3           Al  tau(   3) = (   0.4998143   0.0000610   0.5005910  )
         4           Al  tau(   4) = (  -0.0000400   0.5004374   0.5003674  )

     number of k points=   172  Marzari-Vanderbilt smearing, width (Ry)=  0.0080

     Number of k-points >= 100: set verbosity='high' to print them.

     Dense  grid:     7497 G-vectors     FFT dimensions: (  25,  25,  25)

     Estimated max dynamical RAM per process >      20.86 MB

     Estimated total dynamical RAM >      83.43 MB

     Initial potential from superposition of free atoms

     starting charge   11.99084, renormalised to   12.00000
     Starting wfcs are   16 randomized atomic wfcs
     Checking if some PAW data can be deallocated... 

     total cpu time spent up to now is        1.6 secs

     Self-consistent Calculation

     iteration #  1     ecut=    50.00 Ry     beta= 0.10
     Davidson diagonalization with overlap
     ethr =  1.00E-02,  avg # of iterations =  3.4

     Threshold (ethr) on eigenvalues was too large:
     Diagonalizing with lowered threshold

     Davidson diagonalization with overlap
     ethr =  2.02E-04,  avg # of iterations =  3.1

     total cpu time spent up to now is        5.9 secs

     total energy              =    -158.01217924 Ry
     Harris-Foulkes estimate   =    -158.01300421 Ry
     estimated scf accuracy    <       0.02338457 Ry

     iteration #  2     ecut=    50.00 Ry     beta= 0.10
     Davidson diagonalization with overlap
     ethr =  1.95E-04,  avg # of iterations =  1.0

     total cpu time spent up to now is        7.3 secs

     total energy              =    -158.00604601 Ry
     Harris-Foulkes estimate   =    -158.01228476 Ry
     estimated scf accuracy    <       0.02017770 Ry

     iteration #  3     ecut=    50.00 Ry     beta= 0.10
     Davidson diagonalization with overlap
     ethr =  1.68E-04,  avg # of iterations =  1.0

     total cpu time spent up to now is        8.8 secs

     total energy              =    -158.00639500 Ry
     Harris-Foulkes estimate   =    -158.00643365 Ry
     estimated scf accuracy    <       0.00008443 Ry

     iteration #  4     ecut=    50.00 Ry     beta= 0.10
     Davidson diagonalization with overlap
     ethr =  7.04E-07,  avg # of iterations =  4.3

     total cpu time spent up to now is       11.6 secs

     total energy              =    -158.00645778 Ry
     Harris-Foulkes estimate   =    -158.00647083 Ry
     estimated scf accuracy    <       0.00005675 Ry

     iteration #  5     ecut=    50.00 Ry     beta= 0.10
     Davidson diagonalization with overlap
     ethr =  4.73E-07,  avg # of iterations =  1.0

     total cpu time spent up to now is       13.1 secs

     total energy              =    -158.00641537 Ry
     Harris-Foulkes estimate   =    -158.00645939 Ry
     estimated scf accuracy    <       0.00004337 Ry

     iteration #  6     ecut=    50.00 Ry     beta= 0.10
     Davidson diagonalization with overlap
     ethr =  3.61E-07,  avg # of iterations =  2.0

     total cpu time spent up to now is       15.0 secs

     End of self-consistent calculation

     Number of k-points >= 100: set verbosity='high' to print the bands.

     the Fermi energy is     7.9209 ev

!    total energy              =    -158.00642491 Ry
     Harris-Foulkes estimate   =    -158.00642510 Ry
     estimated scf accuracy    <       0.00000099 Ry

     total all-electron energy =     -1942.577547 Ry

     The total energy is the sum of the following terms:

     one-electron contribution =      12.65443972 Ry
     hartree contribution      =       0.02401502 Ry
     xc contribution           =     -10.36183074 Ry
     ewald contribution        =     -21.61650270 Ry
     one-center paw contrib.   =    -138.70634881 Ry
     smearing contrib. (-TS)   =      -0.00019740 Ry

     convergence has been achieved in   6 iterations

     Forces acting on atoms (cartesian axes, Ry/au):

     atom    1 type  1   force =     0.00005709   -0.00004275    0.00018085
     atom    2 type  1   force =    -0.00017078    0.00020531    0.00018204
     atom    3 type  1   force =     0.00005769    0.00005581   -0.00028985
     atom    4 type  1   force =     0.00005600   -0.00021837   -0.00007304

     Total force =     0.000537     Total SCF correction =     0.000229
     SCF correction compared to forces is large: reduce conv_thr to get better values


     Computing stress (Cartesian axis) and pressure

          total   stress  (Ry/bohr**3)                   (kbar)     P=   -7.11
  -0.00004835   0.00000000   0.00000001         -7.11      0.00      0.00
   0.00000000  -0.00004835   0.00000000          0.00     -7.11      0.00
   0.00000001   0.00000000  -0.00004835          0.00      0.00     -7.11


     Writing output data file fe_scf_fcc_2.save/

     init_run     :      1.10s CPU      1.17s WALL (       1 calls)
     electrons    :     12.75s CPU     13.38s WALL (       1 calls)
     forces       :      0.34s CPU      0.34s WALL (       1 calls)
     stress       :      0.62s CPU      0.62s WALL (       1 calls)

     Called by init_run:
     wfcinit      :      1.00s CPU      1.06s WALL (       1 calls)
     potinit      :      0.04s CPU      0.05s WALL (       1 calls)
     hinit0       :      0.06s CPU      0.06s WALL (       1 calls)

     Called by electrons:
     c_bands      :     11.03s CPU     11.55s WALL (       7 calls)
     sum_band     :      1.46s CPU      1.55s WALL (       7 calls)
     v_of_rho     :      0.02s CPU      0.02s WALL (       7 calls)
     newd         :      0.01s CPU      0.01s WALL (       7 calls)
     PAW_pot      :      0.27s CPU      0.29s WALL (       7 calls)
     mix_rho      :      0.00s CPU      0.00s WALL (       7 calls)

     Called by c_bands:
     init_us_2    :      0.33s CPU      0.34s WALL (    2924 calls)
     cegterg      :     10.43s CPU     10.94s WALL (    1204 calls)

     Called by sum_band:
     sum_band:bec :      0.01s CPU      0.01s WALL (    1204 calls)
     addusdens    :      0.01s CPU      0.01s WALL (       7 calls)

     Called by *egterg:
     h_psi        :      6.92s CPU      7.29s WALL (    4088 calls)
     s_psi        :      0.78s CPU      0.82s WALL (    4088 calls)
     g_psi        :      0.05s CPU      0.05s WALL (    2712 calls)
     cdiaghg      :      0.57s CPU      0.59s WALL (    3744 calls)

     Called by h_psi:
     h_psi:pot    :      6.89s CPU      7.25s WALL (    4088 calls)
     h_psi:calbec :      1.33s CPU      1.41s WALL (    4088 calls)
     vloc_psi     :      4.77s CPU      5.01s WALL (    4088 calls)
     add_vuspsi   :      0.78s CPU      0.82s WALL (    4088 calls)

     General routines
     calbec       :      2.27s CPU      2.38s WALL (    6152 calls)
     fft          :      0.01s CPU      0.01s WALL (     103 calls)
     ffts         :      0.00s CPU      0.00s WALL (       7 calls)
     fftw         :      5.23s CPU      5.51s WALL (   79918 calls)

     Parallel routines
     fft_scatt_xy :      0.50s CPU      0.52s WALL (   80028 calls)
     fft_scatt_yz :      3.01s CPU      3.18s WALL (   80028 calls)

     PWSCF        :     15.30s CPU     16.08s WALL


   This run was terminated on:  16: 2:48  24Feb2020            

=------------------------------------------------------------------------------=
   JOB DONE.
=------------------------------------------------------------------------------=
