
     Program PWSCF v.6.4.1 starts on 24Feb2020 at 16: 0:47 

     This program is part of the open-source Quantum ESPRESSO suite
     for quantum simulation of materials; please cite
         "P. Giannozzi et al., J. Phys.:Condens. Matter 21 395502 (2009);
         "P. Giannozzi et al., J. Phys.:Condens. Matter 29 465901 (2017);
          URL http://www.quantum-espresso.org", 
     in publications or presentations arising from this work. More details at
     http://www.quantum-espresso.org/quote

     Parallel version (MPI), running on     4 processors

     MPI processes distributed on     1 nodes
     R & G space division:  proc/nbgrp/npool/nimage =       4
     Reading input from /cloud/Code/python/py_pwscf_converge/src/example2/wd/runpwscf/file_10227.in
Warning: card &IONS ignored
Warning: card ION_DYNAMICS = 'BFGS', ignored
Warning: card / ignored
Warning: card &CELL ignored
Warning: card CELL_DYNAMICS = 'BFGS', ignored
Warning: card CELL_FACTOR = 2.0, ignored
Warning: card PRESS = 0.0, ignored
Warning: card / ignored

     Current dimensions of program PWSCF are:
     Max number of different atomic species (ntypx) = 10
     Max number of k-points (npk) =  40000
     Max angular momentum in pseudopotentials (lmaxx) =  3
               file Al.pbe-nl-kjpaw_psl.1.0.0.UPF: wavefunction(s)  3S 3P renormalized

     Subspace diagonalization in iterative solution of the eigenvalue problem:
     a serial algorithm will be used


     Parallelization info
     --------------------
     sticks:   dense  smooth     PW     G-vecs:    dense   smooth      PW
     Min         115     115     70                 1873     1873     893
     Max         117     117     72                 1875     1875     894
     Sum         465     465    285                 7497     7497    3575



     bravais-lattice index     =            0
     lattice parameter (alat)  =       7.6356  a.u.
     unit-cell volume          =     445.1737 (a.u.)^3
     number of atoms/cell      =            4
     number of atomic types    =            1
     number of electrons       =        12.00
     number of Kohn-Sham states=           10
     kinetic-energy cutoff     =      50.0000  Ry
     charge density cutoff     =     100.0000  Ry
     convergence threshold     =      1.0E-06
     mixing beta               =       0.1000
     number of iterations used =           10  TF        mixing
     Exchange-correlation      = SLA PW PBX PBC ( 1  4  3  4 0 0)

     celldm(1)=   7.635600  celldm(2)=   0.000000  celldm(3)=   0.000000
     celldm(4)=   0.000000  celldm(5)=   0.000000  celldm(6)=   0.000000

     crystal axes: (cart. coord. in units of alat)
               a(1) = (   1.000000   0.000000   0.000000 )  
               a(2) = (   0.000000   1.000000   0.000000 )  
               a(3) = (   0.000000   0.000000   1.000000 )  

     reciprocal axes: (cart. coord. in units 2 pi/alat)
               b(1) = (  1.000000  0.000000  0.000000 )  
               b(2) = (  0.000000  1.000000  0.000000 )  
               b(3) = (  0.000000  0.000000  1.000000 )  


     PseudoPot. # 1 for Al read from file:
     /opt/pp/Al.pbe-nl-kjpaw_psl.1.0.0.UPF
     MD5 check sum: 1b67f78b73fe58c7924490f171ce8a1e
     Pseudo is Projector augmented-wave + core cor, Zval =  3.0
     Generated using "atomic" code by A. Dal Corso v.6.3
     Shape of augmentation charge: PSQ
     Using radial grid of 1135 points,  4 beta functions with: 
                l(1) =   0
                l(2) =   0
                l(3) =   1
                l(4) =   1
     Q(r) pseudized with 0 coefficients 


     atomic species   valence    mass     pseudopotential
        Al             3.00    26.98200     Al( 1.00)

     No symmetry found



   Cartesian axes

     site n.     atom                  positions (alat units)
         1           Al  tau(   1) = (  -0.0000654   0.0000190   0.0001361  )
         2           Al  tau(   2) = (   0.5001592   0.4996200   0.0001406  )
         3           Al  tau(   3) = (   0.4998143   0.0000610   0.5005910  )
         4           Al  tau(   4) = (  -0.0000400   0.5004374   0.5003674  )

     number of k points=    63  Marzari-Vanderbilt smearing, width (Ry)=  0.0300
                       cart. coord. in units 2pi/alat
        k(    1) = (   0.1000000   0.1000000   0.1000000), wk =   0.0320000
        k(    2) = (   0.1000000   0.1000000   0.3000000), wk =   0.0320000
        k(    3) = (   0.1000000   0.1000000  -0.5000000), wk =   0.0320000
        k(    4) = (   0.1000000   0.3000000   0.3000000), wk =   0.0320000
        k(    5) = (   0.1000000   0.3000000  -0.5000000), wk =   0.0320000
        k(    6) = (   0.1000000  -0.5000000  -0.5000000), wk =   0.0320000
        k(    7) = (   0.3000000   0.3000000   0.3000000), wk =   0.0320000
        k(    8) = (   0.3000000   0.3000000  -0.5000000), wk =   0.0320000
        k(    9) = (   0.3000000  -0.5000000  -0.5000000), wk =   0.0320000
        k(   10) = (  -0.5000000  -0.5000000  -0.5000000), wk =   0.0160000
        k(   11) = (  -0.1000000  -0.1000000   0.1000000), wk =   0.0320000
        k(   12) = (  -0.1000000   0.1000000  -0.1000000), wk =   0.0320000
        k(   13) = (   0.1000000  -0.1000000  -0.1000000), wk =   0.0320000
        k(   14) = (  -0.1000000  -0.1000000   0.3000000), wk =   0.0320000
        k(   15) = (  -0.1000000   0.1000000  -0.3000000), wk =   0.0320000
        k(   16) = (   0.1000000  -0.1000000  -0.3000000), wk =   0.0320000
        k(   17) = (   0.3000000  -0.1000000   0.1000000), wk =   0.0320000
        k(   18) = (  -0.3000000  -0.1000000  -0.1000000), wk =   0.0320000
        k(   19) = (   0.3000000   0.1000000  -0.1000000), wk =   0.0320000
        k(   20) = (  -0.3000000   0.1000000   0.1000000), wk =   0.0320000
        k(   21) = (  -0.1000000   0.3000000   0.1000000), wk =   0.0320000
        k(   22) = (  -0.1000000  -0.3000000  -0.1000000), wk =   0.0320000
        k(   23) = (   0.1000000   0.3000000  -0.1000000), wk =   0.0320000
        k(   24) = (   0.1000000  -0.3000000   0.1000000), wk =   0.0320000
        k(   25) = (  -0.1000000   0.1000000   0.5000000), wk =   0.0320000
        k(   26) = (  -0.5000000  -0.1000000   0.1000000), wk =   0.0320000
        k(   27) = (   0.5000000  -0.1000000  -0.1000000), wk =   0.0320000
        k(   28) = (  -0.1000000  -0.5000000   0.1000000), wk =   0.0320000
        k(   29) = (  -0.1000000   0.5000000  -0.1000000), wk =   0.0320000
        k(   30) = (  -0.1000000  -0.3000000   0.3000000), wk =   0.0320000
        k(   31) = (  -0.1000000   0.3000000  -0.3000000), wk =   0.0320000
        k(   32) = (   0.1000000  -0.3000000  -0.3000000), wk =   0.0320000
        k(   33) = (   0.3000000   0.1000000  -0.3000000), wk =   0.0320000
        k(   34) = (  -0.3000000  -0.1000000  -0.3000000), wk =   0.0320000
        k(   35) = (   0.3000000  -0.1000000   0.3000000), wk =   0.0320000
        k(   36) = (  -0.3000000   0.1000000   0.3000000), wk =   0.0320000
        k(   37) = (   0.3000000  -0.3000000   0.1000000), wk =   0.0320000
        k(   38) = (  -0.3000000  -0.3000000  -0.1000000), wk =   0.0320000
        k(   39) = (   0.3000000   0.3000000  -0.1000000), wk =   0.0320000
        k(   40) = (  -0.3000000   0.3000000   0.1000000), wk =   0.0320000
        k(   41) = (  -0.1000000   0.3000000   0.5000000), wk =   0.0320000
        k(   42) = (   0.3000000   0.1000000   0.5000000), wk =   0.0320000
        k(   43) = (   0.3000000  -0.1000000  -0.5000000), wk =   0.0320000
        k(   44) = (  -0.5000000  -0.3000000   0.1000000), wk =   0.0320000
        k(   45) = (   0.5000000  -0.3000000  -0.1000000), wk =   0.0320000
        k(   46) = (  -0.1000000  -0.5000000   0.3000000), wk =   0.0320000
        k(   47) = (  -0.1000000   0.5000000  -0.3000000), wk =   0.0320000
        k(   48) = (   0.3000000  -0.5000000   0.1000000), wk =   0.0320000
        k(   49) = (   0.3000000   0.5000000  -0.1000000), wk =   0.0320000
        k(   50) = (  -0.5000000   0.1000000   0.3000000), wk =   0.0320000
        k(   51) = (   0.5000000  -0.1000000   0.3000000), wk =   0.0320000
        k(   52) = (  -0.5000000   0.1000000   0.5000000), wk =   0.0320000
        k(   53) = (  -0.5000000   0.5000000   0.1000000), wk =   0.0320000
        k(   54) = (  -0.3000000  -0.3000000   0.3000000), wk =   0.0320000
        k(   55) = (  -0.3000000   0.3000000  -0.3000000), wk =   0.0320000
        k(   56) = (   0.3000000  -0.3000000  -0.3000000), wk =   0.0320000
        k(   57) = (  -0.3000000   0.3000000   0.5000000), wk =   0.0320000
        k(   58) = (  -0.5000000  -0.3000000   0.3000000), wk =   0.0320000
        k(   59) = (   0.5000000  -0.3000000  -0.3000000), wk =   0.0320000
        k(   60) = (  -0.3000000  -0.5000000   0.3000000), wk =   0.0320000
        k(   61) = (  -0.3000000   0.5000000  -0.3000000), wk =   0.0320000
        k(   62) = (  -0.5000000   0.3000000   0.5000000), wk =   0.0320000
        k(   63) = (  -0.5000000   0.5000000   0.3000000), wk =   0.0320000

     Dense  grid:     7497 G-vectors     FFT dimensions: (  25,  25,  25)

     Estimated max dynamical RAM per process >       9.81 MB

     Estimated total dynamical RAM >      39.25 MB

     Initial potential from superposition of free atoms

     starting charge   11.99084, renormalised to   12.00000
     Starting wfcs are   16 randomized atomic wfcs
     Checking if some PAW data can be deallocated... 

     total cpu time spent up to now is        1.0 secs

     Self-consistent Calculation

     iteration #  1     ecut=    50.00 Ry     beta= 0.10
     Davidson diagonalization with overlap
     ethr =  1.00E-02,  avg # of iterations =  3.1

     Threshold (ethr) on eigenvalues was too large:
     Diagonalizing with lowered threshold

     Davidson diagonalization with overlap
     ethr =  1.95E-04,  avg # of iterations =  3.6

     total cpu time spent up to now is        2.9 secs

     total energy              =    -158.00654301 Ry
     Harris-Foulkes estimate   =    -158.00734881 Ry
     estimated scf accuracy    <       0.02275478 Ry

     iteration #  2     ecut=    50.00 Ry     beta= 0.10
     Davidson diagonalization with overlap
     ethr =  1.90E-04,  avg # of iterations =  1.0

     total cpu time spent up to now is        3.6 secs

     total energy              =    -158.00059061 Ry
     Harris-Foulkes estimate   =    -158.00664933 Ry
     estimated scf accuracy    <       0.01962611 Ry

     iteration #  3     ecut=    50.00 Ry     beta= 0.10
     Davidson diagonalization with overlap
     ethr =  1.64E-04,  avg # of iterations =  1.0

     total cpu time spent up to now is        4.3 secs

     total energy              =    -158.00092657 Ry
     Harris-Foulkes estimate   =    -158.00096548 Ry
     estimated scf accuracy    <       0.00008451 Ry

     iteration #  4     ecut=    50.00 Ry     beta= 0.10
     Davidson diagonalization with overlap
     ethr =  7.04E-07,  avg # of iterations =  4.2

     total cpu time spent up to now is        5.7 secs

     total energy              =    -158.00098770 Ry
     Harris-Foulkes estimate   =    -158.00100101 Ry
     estimated scf accuracy    <       0.00005473 Ry

     iteration #  5     ecut=    50.00 Ry     beta= 0.10
     Davidson diagonalization with overlap
     ethr =  4.56E-07,  avg # of iterations =  1.0

     total cpu time spent up to now is        6.3 secs

     total energy              =    -158.00094546 Ry
     Harris-Foulkes estimate   =    -158.00098897 Ry
     estimated scf accuracy    <       0.00004039 Ry

     iteration #  6     ecut=    50.00 Ry     beta= 0.10
     Davidson diagonalization with overlap
     ethr =  3.37E-07,  avg # of iterations =  2.0

     total cpu time spent up to now is        7.2 secs

     End of self-consistent calculation

          k = 0.1000 0.1000 0.1000 (  2647 PWs)   bands (ev):

    -2.9615   4.0414   4.0438   4.0462   7.7412   7.7439   7.7465  10.7602
    10.7632  10.7661

          k = 0.1000 0.1000 0.3000 (  2672 PWs)   bands (ev):

    -2.2391   1.3157   4.7246   4.7280   8.0297   8.0358   8.5368   8.5375
    11.3562  11.7963

          k = 0.1000 0.1000-0.5000 (  2658 PWs)   bands (ev):

    -0.8087  -0.8017   5.9695   5.9701   6.2108   6.2117   9.5128   9.5132
    10.1743  10.1754

          k = 0.1000 0.3000 0.3000 (  2669 PWs)   bands (ev):

    -1.5203   2.0151   2.0183   5.3103   5.5763   8.7945   8.7988   9.1501
    12.1852  12.1910

          k = 0.1000 0.3000-0.5000 (  2656 PWs)   bands (ev):

    -0.0970  -0.0900   3.4039   3.4110   6.7765   6.7841  10.1397  10.1477
    10.4848  10.4914

          k = 0.1000-0.5000-0.5000 (  2668 PWs)   bands (ev):

     1.3153   1.3158   1.3224   1.3236   8.1279   8.1285   8.1360   8.1373
    11.8266  11.8315

          k = 0.3000 0.3000 0.3000 (  2653 PWs)   bands (ev):

    -0.8050   2.7113   2.7138   2.7164   6.1651   6.1679   6.1706   9.5502
    13.0694  13.0728

          k = 0.3000 0.3000-0.5000 (  2644 PWs)   bands (ev):

     0.6113   0.6183   3.9824   3.9830   4.2316   4.2325   7.5262   7.5337
    14.5690  14.5701

          k = 0.3000-0.5000-0.5000 (  2660 PWs)   bands (ev):

     2.0165   2.0170   2.0237   2.0248   5.4858   5.4863   5.4932   5.4944
    15.6218  15.6268

          k =-0.5000-0.5000-0.5000 (  2608 PWs)   bands (ev):

     3.3109   3.3111   3.3113   3.3118   3.5278   3.5288   3.5290   3.5294
    19.3113  19.3120

          k =-0.1000-0.1000 0.1000 (  2647 PWs)   bands (ev):

    -2.9615   4.0419   4.0438   4.0457   7.7417   7.7439   7.7460  10.7608
    10.7632  10.7655

          k =-0.1000 0.1000-0.1000 (  2647 PWs)   bands (ev):

    -2.9615   4.0425   4.0438   4.0451   7.7423   7.7439   7.7454  10.7615
    10.7632  10.7649

          k = 0.1000-0.1000-0.1000 (  2647 PWs)   bands (ev):

    -2.9615   4.0421   4.0438   4.0455   7.7420   7.7439   7.7458  10.7610
    10.7632  10.7653

          k =-0.1000-0.1000 0.3000 (  2672 PWs)   bands (ev):

    -2.2391   1.3157   4.7246   4.7280   8.0297   8.0358   8.5368   8.5375
    11.3562  11.7964

          k =-0.1000 0.1000-0.3000 (  2672 PWs)   bands (ev):

    -2.2391   1.3157   4.7256   4.7271   8.0313   8.0342   8.5370   8.5373
    11.3562  11.7968

          k = 0.1000-0.1000-0.3000 (  2672 PWs)   bands (ev):

    -2.2391   1.3157   4.7256   4.7271   8.0313   8.0341   8.5370   8.5373
    11.3562  11.7964

          k = 0.3000-0.1000 0.1000 (  2672 PWs)   bands (ev):

    -2.2391   1.3157   4.7255   4.7272   8.0313   8.0342   8.5370   8.5374
    11.3562  11.7962

          k =-0.3000-0.1000-0.1000 (  2672 PWs)   bands (ev):

    -2.2391   1.3157   4.7248   4.7278   8.0301   8.0354   8.5368   8.5375
    11.3562  11.7963

          k = 0.3000 0.1000-0.1000 (  2672 PWs)   bands (ev):

    -2.2391   1.3157   4.7255   4.7272   8.0313   8.0342   8.5370   8.5374
    11.3562  11.7962

          k =-0.3000 0.1000 0.1000 (  2672 PWs)   bands (ev):

    -2.2391   1.3157   4.7248   4.7278   8.0301   8.0354   8.5368   8.5375
    11.3562  11.7962

          k =-0.1000 0.3000 0.1000 (  2672 PWs)   bands (ev):

    -2.2391   1.3157   4.7261   4.7266   8.0323   8.0332   8.5371   8.5373
    11.3562  11.7959

          k =-0.1000-0.3000-0.1000 (  2672 PWs)   bands (ev):

    -2.2391   1.3157   4.7256   4.7271   8.0313   8.0342   8.5371   8.5372
    11.3562  11.7969

          k = 0.1000 0.3000-0.1000 (  2672 PWs)   bands (ev):

    -2.2391   1.3157   4.7261   4.7266   8.0323   8.0332   8.5371   8.5373
    11.3562  11.7957

          k = 0.1000-0.3000 0.1000 (  2672 PWs)   bands (ev):

    -2.2391   1.3157   4.7256   4.7271   8.0313   8.0342   8.5371   8.5372
    11.3562  11.7964

          k =-0.1000 0.1000 0.5000 (  2658 PWs)   bands (ev):

    -0.8087  -0.8017   5.9695   5.9701   6.2108   6.2117   9.5129   9.5132
    10.1743  10.1754

          k =-0.5000-0.1000 0.1000 (  2658 PWs)   bands (ev):

    -0.8057  -0.8048   5.9696   5.9701   6.2108   6.2115   9.5129   9.5132
    10.1744  10.1752

          k = 0.5000-0.1000-0.1000 (  2658 PWs)   bands (ev):

    -0.8057  -0.8048   5.9696   5.9701   6.2108   6.2115   9.5129   9.5132
    10.1744  10.1752

          k =-0.1000-0.5000 0.1000 (  2658 PWs)   bands (ev):

    -0.8055  -0.8050   5.9698   5.9699   6.2110   6.2114   9.5130   9.5131
    10.1746  10.1750

          k =-0.1000 0.5000-0.1000 (  2658 PWs)   bands (ev):

    -0.8055  -0.8050   5.9697   5.9700   6.2111   6.2113   9.5130   9.5131
    10.1747  10.1750

          k =-0.1000-0.3000 0.3000 (  2669 PWs)   bands (ev):

    -1.5203   2.0158   2.0176   5.3103   5.5763   8.7955   8.7979   9.1501
    12.1865  12.1904

          k =-0.1000 0.3000-0.3000 (  2669 PWs)   bands (ev):

    -1.5203   2.0158   2.0176   5.3103   5.5763   8.7955   8.7979   9.1501
    12.1869  12.1903

          k = 0.1000-0.3000-0.3000 (  2669 PWs)   bands (ev):

    -1.5203   2.0151   2.0183   5.3103   5.5763   8.7945   8.7988   9.1501
    12.1853  12.1919

          k = 0.3000 0.1000-0.3000 (  2669 PWs)   bands (ev):

    -1.5203   2.0164   2.0170   5.3103   5.5763   8.7963   8.7970   9.1501
    12.1878  12.1892

          k =-0.3000-0.1000-0.3000 (  2669 PWs)   bands (ev):

    -1.5203   2.0159   2.0175   5.3103   5.5763   8.7955   8.7978   9.1501
    12.1861  12.1902

          k = 0.3000-0.1000 0.3000 (  2669 PWs)   bands (ev):

    -1.5203   2.0159   2.0175   5.3103   5.5763   8.7955   8.7978   9.1501
    12.1868  12.1901

          k =-0.3000 0.1000 0.3000 (  2669 PWs)   bands (ev):

    -1.5203   2.0164   2.0170   5.3103   5.5763   8.7963   8.7970   9.1501
    12.1881  12.1892

          k = 0.3000-0.3000 0.1000 (  2669 PWs)   bands (ev):

    -1.5203   2.0159   2.0175   5.3103   5.5763   8.7955   8.7978   9.1501
    12.1868  12.1891

          k =-0.3000-0.3000-0.1000 (  2669 PWs)   bands (ev):

    -1.5203   2.0149   2.0185   5.3103   5.5763   8.7941   8.7992   9.1501
    12.1849  12.1916

          k = 0.3000 0.3000-0.1000 (  2669 PWs)   bands (ev):

    -1.5203   2.0149   2.0185   5.3103   5.5763   8.7941   8.7992   9.1501
    12.1849  12.1922

          k =-0.3000 0.3000 0.1000 (  2669 PWs)   bands (ev):

    -1.5203   2.0159   2.0175   5.3103   5.5763   8.7955   8.7978   9.1501
    12.1861  12.1904

          k =-0.1000 0.3000 0.5000 (  2656 PWs)   bands (ev):

    -0.0970  -0.0900   3.4039   3.4110   6.7765   6.7841  10.1397  10.1477
    10.4848  10.4914

          k = 0.3000 0.1000 0.5000 (  2656 PWs)   bands (ev):

    -0.0970  -0.0900   3.4039   3.4110   6.7765   6.7841  10.1397  10.1477
    10.4848  10.4914

          k = 0.3000-0.1000-0.5000 (  2656 PWs)   bands (ev):

    -0.0970  -0.0900   3.4039   3.4110   6.7765   6.7841  10.1397  10.1477
    10.4848  10.4914

          k =-0.5000-0.3000 0.1000 (  2656 PWs)   bands (ev):

    -0.0940  -0.0931   3.4070   3.4079   6.7798   6.7808  10.1432  10.1443
    10.4876  10.4885

          k = 0.5000-0.3000-0.1000 (  2656 PWs)   bands (ev):

    -0.0940  -0.0931   3.4070   3.4079   6.7798   6.7808  10.1432  10.1442
    10.4877  10.4885

          k =-0.1000-0.5000 0.3000 (  2656 PWs)   bands (ev):

    -0.0937  -0.0933   3.4072   3.4077   6.7801   6.7805  10.1435  10.1440
    10.4879  10.4883

          k =-0.1000 0.5000-0.3000 (  2656 PWs)   bands (ev):

    -0.0937  -0.0933   3.4072   3.4077   6.7801   6.7805  10.1435  10.1440
    10.4879  10.4883

          k = 0.3000-0.5000 0.1000 (  2656 PWs)   bands (ev):

    -0.0937  -0.0933   3.4072   3.4077   6.7801   6.7805  10.1435  10.1440
    10.4879  10.4883

          k = 0.3000 0.5000-0.1000 (  2656 PWs)   bands (ev):

    -0.0937  -0.0933   3.4072   3.4077   6.7801   6.7805  10.1435  10.1440
    10.4879  10.4883

          k =-0.5000 0.1000 0.3000 (  2656 PWs)   bands (ev):

    -0.0940  -0.0931   3.4070   3.4079   6.7798   6.7808  10.1432  10.1442
    10.4877  10.4885

          k = 0.5000-0.1000 0.3000 (  2656 PWs)   bands (ev):

    -0.0940  -0.0931   3.4070   3.4079   6.7798   6.7808  10.1432  10.1443
    10.4877  10.4885

          k =-0.5000 0.1000 0.5000 (  2668 PWs)   bands (ev):

     1.3153   1.3160   1.3222   1.3235   8.1281   8.1288   8.1356   8.1372
    11.8300  11.8329

          k =-0.5000 0.5000 0.1000 (  2668 PWs)   bands (ev):

     1.3173   1.3184   1.3200   1.3213   8.1299   8.1313   8.1335   8.1350
    11.8292  11.8300

          k =-0.3000-0.3000 0.3000 (  2653 PWs)   bands (ev):

    -0.8050   2.7118   2.7139   2.7159   6.1657   6.1679   6.1700   9.5502
    13.0701  13.0723

          k =-0.3000 0.3000-0.3000 (  2653 PWs)   bands (ev):

    -0.8050   2.7124   2.7138   2.7153   6.1663   6.1679   6.1694   9.5502
    13.0711  13.0730

          k = 0.3000-0.3000-0.3000 (  2653 PWs)   bands (ev):

    -0.8050   2.7120   2.7139   2.7156   6.1659   6.1679   6.1698   9.5502
    13.0698  13.0729

          k =-0.3000 0.3000 0.5000 (  2644 PWs)   bands (ev):

     0.6113   0.6183   3.9825   3.9830   4.2315   4.2325   7.5261   7.5337
    14.5689  14.5698

          k =-0.5000-0.3000 0.3000 (  2644 PWs)   bands (ev):

     0.6144   0.6153   3.9826   3.9830   4.2316   4.2323   7.5294   7.5304
    14.5685  14.5699

          k = 0.5000-0.3000-0.3000 (  2644 PWs)   bands (ev):

     0.6143   0.6153   3.9826   3.9830   4.2316   4.2323   7.5294   7.5304
    14.5686  14.5698

          k =-0.3000-0.5000 0.3000 (  2644 PWs)   bands (ev):

     0.6146   0.6150   3.9827   3.9828   4.2318   4.2321   7.5297   7.5302
    14.5691  14.5697

          k =-0.3000 0.5000-0.3000 (  2644 PWs)   bands (ev):

     0.6146   0.6150   3.9826   3.9829   4.2318   4.2321   7.5297   7.5301
    14.1695  14.5696

          k =-0.5000 0.3000 0.5000 (  2660 PWs)   bands (ev):

     2.0166   2.0173   2.0234   2.0248   5.4859   5.4866   5.4929   5.4943
    15.6200  15.6249

          k =-0.5000 0.5000 0.3000 (  2660 PWs)   bands (ev):

     2.0186   2.0197   2.0213   2.0225   5.4879   5.4891   5.4907   5.4921
    15.6237  15.6249

     the Fermi energy is     8.0626 ev

!    total energy              =    -158.00095536 Ry
     Harris-Foulkes estimate   =    -158.00095553 Ry
     estimated scf accuracy    <       0.00000094 Ry

     total all-electron energy =     -1942.572077 Ry

     The total energy is the sum of the following terms:

     one-electron contribution =      12.66681557 Ry
     hartree contribution      =       0.02405216 Ry
     xc contribution           =     -10.36309091 Ry
     ewald contribution        =     -21.61650270 Ry
     one-center paw contrib.   =    -138.70821938 Ry
     smearing contrib. (-TS)   =      -0.00401011 Ry

     convergence has been achieved in   6 iterations

     Forces acting on atoms (cartesian axes, Ry/au):

     atom    1 type  1   force =     0.00005909   -0.00004730    0.00021834
     atom    2 type  1   force =    -0.00016366    0.00018743    0.00021992
     atom    3 type  1   force =     0.00004465    0.00005134   -0.00032021
     atom    4 type  1   force =     0.00005992   -0.00019147   -0.00011804

     Total force =     0.000570     Total SCF correction =     0.000227
     SCF correction compared to forces is large: reduce conv_thr to get better values


     Computing stress (Cartesian axis) and pressure

          total   stress  (Ry/bohr**3)                   (kbar)     P=   -0.54
  -0.00000366   0.00000001   0.00000001         -0.54      0.00      0.00
   0.00000001  -0.00000365   0.00000001          0.00     -0.54      0.00
   0.00000001   0.00000001  -0.00000365          0.00      0.00     -0.54


     Writing output data file fe_scf_fcc_2.save/

     init_run     :      0.51s CPU      0.54s WALL (       1 calls)
     electrons    :      5.88s CPU      6.24s WALL (       1 calls)
     forces       :      0.16s CPU      0.16s WALL (       1 calls)
     stress       :      0.29s CPU      0.29s WALL (       1 calls)

     Called by init_run:
     wfcinit      :      0.40s CPU      0.43s WALL (       1 calls)
     potinit      :      0.05s CPU      0.05s WALL (       1 calls)
     hinit0       :      0.05s CPU      0.05s WALL (       1 calls)

     Called by electrons:
     c_bands      :      4.96s CPU      5.25s WALL (       7 calls)
     sum_band     :      0.61s CPU      0.66s WALL (       7 calls)
     v_of_rho     :      0.02s CPU      0.02s WALL (       7 calls)
     newd         :      0.01s CPU      0.01s WALL (       7 calls)
     PAW_pot      :      0.32s CPU      0.34s WALL (       7 calls)
     mix_rho      :      0.00s CPU      0.00s WALL (       7 calls)

     Called by c_bands:
     init_us_2    :      0.16s CPU      0.17s WALL (    1071 calls)
     cegterg      :      4.68s CPU      4.95s WALL (     441 calls)

     Called by sum_band:
     sum_band:bec :      0.00s CPU      0.00s WALL (     441 calls)
     addusdens    :      0.01s CPU      0.01s WALL (       7 calls)

     Called by *egterg:
     h_psi        :      3.07s CPU      3.26s WALL (    1508 calls)
     s_psi        :      0.39s CPU      0.41s WALL (    1508 calls)
     g_psi        :      0.02s CPU      0.02s WALL (    1004 calls)
     cdiaghg      :      0.27s CPU      0.28s WALL (    1382 calls)

     Called by h_psi:
     h_psi:pot    :      3.05s CPU      3.23s WALL (    1508 calls)
     h_psi:calbec :      0.60s CPU      0.64s WALL (    1508 calls)
     vloc_psi     :      2.06s CPU      2.18s WALL (    1508 calls)
     add_vuspsi   :      0.39s CPU      0.41s WALL (    1508 calls)

     General routines
     calbec       :      0.96s CPU      1.03s WALL (    2264 calls)
     fft          :      0.01s CPU      0.01s WALL (     103 calls)
     ffts         :      0.00s CPU      0.00s WALL (       7 calls)
     fftw         :      2.21s CPU      2.35s WALL (   29472 calls)

     Parallel routines
     fft_scatt_xy :      0.23s CPU      0.24s WALL (   29582 calls)
     fft_scatt_yz :      1.17s CPU      1.25s WALL (   29582 calls)

     PWSCF        :      7.33s CPU      7.76s WALL


   This run was terminated on:  16: 0:55  24Feb2020            

=------------------------------------------------------------------------------=
   JOB DONE.
=------------------------------------------------------------------------------=
