
     Program PWSCF v.6.4.1 starts on 24Feb2020 at 15:59:44 

     This program is part of the open-source Quantum ESPRESSO suite
     for quantum simulation of materials; please cite
         "P. Giannozzi et al., J. Phys.:Condens. Matter 21 395502 (2009);
         "P. Giannozzi et al., J. Phys.:Condens. Matter 29 465901 (2017);
          URL http://www.quantum-espresso.org", 
     in publications or presentations arising from this work. More details at
     http://www.quantum-espresso.org/quote

     Parallel version (MPI), running on     4 processors

     MPI processes distributed on     1 nodes
     R & G space division:  proc/nbgrp/npool/nimage =       4
     Reading input from /cloud/Code/python/py_pwscf_converge/src/example2/wd/runpwscf/file_10220.in
Warning: card &IONS ignored
Warning: card ION_DYNAMICS = 'BFGS', ignored
Warning: card / ignored
Warning: card &CELL ignored
Warning: card CELL_DYNAMICS = 'BFGS', ignored
Warning: card CELL_FACTOR = 2.0, ignored
Warning: card PRESS = 0.0, ignored
Warning: card / ignored

     Current dimensions of program PWSCF are:
     Max number of different atomic species (ntypx) = 10
     Max number of k-points (npk) =  40000
     Max angular momentum in pseudopotentials (lmaxx) =  3
               file Al.pbe-nl-kjpaw_psl.1.0.0.UPF: wavefunction(s)  3S 3P renormalized

     Subspace diagonalization in iterative solution of the eigenvalue problem:
     a serial algorithm will be used


     Parallelization info
     --------------------
     sticks:   dense  smooth     PW     G-vecs:    dense   smooth      PW
     Min         115     115     70                 1873     1873     893
     Max         117     117     72                 1875     1875     894
     Sum         465     465    285                 7497     7497    3575



     bravais-lattice index     =            0
     lattice parameter (alat)  =       7.6356  a.u.
     unit-cell volume          =     445.1737 (a.u.)^3
     number of atoms/cell      =            4
     number of atomic types    =            1
     number of electrons       =        12.00
     number of Kohn-Sham states=           10
     kinetic-energy cutoff     =      50.0000  Ry
     charge density cutoff     =     100.0000  Ry
     convergence threshold     =      1.0E-06
     mixing beta               =       0.1000
     number of iterations used =           10  TF        mixing
     Exchange-correlation      = SLA PW PBX PBC ( 1  4  3  4 0 0)

     celldm(1)=   7.635600  celldm(2)=   0.000000  celldm(3)=   0.000000
     celldm(4)=   0.000000  celldm(5)=   0.000000  celldm(6)=   0.000000

     crystal axes: (cart. coord. in units of alat)
               a(1) = (   1.000000   0.000000   0.000000 )  
               a(2) = (   0.000000   1.000000   0.000000 )  
               a(3) = (   0.000000   0.000000   1.000000 )  

     reciprocal axes: (cart. coord. in units 2 pi/alat)
               b(1) = (  1.000000  0.000000  0.000000 )  
               b(2) = (  0.000000  1.000000  0.000000 )  
               b(3) = (  0.000000  0.000000  1.000000 )  


     PseudoPot. # 1 for Al read from file:
     /opt/pp/Al.pbe-nl-kjpaw_psl.1.0.0.UPF
     MD5 check sum: 1b67f78b73fe58c7924490f171ce8a1e
     Pseudo is Projector augmented-wave + core cor, Zval =  3.0
     Generated using "atomic" code by A. Dal Corso v.6.3
     Shape of augmentation charge: PSQ
     Using radial grid of 1135 points,  4 beta functions with: 
                l(1) =   0
                l(2) =   0
                l(3) =   1
                l(4) =   1
     Q(r) pseudized with 0 coefficients 


     atomic species   valence    mass     pseudopotential
        Al             3.00    26.98200     Al( 1.00)

     No symmetry found



   Cartesian axes

     site n.     atom                  positions (alat units)
         1           Al  tau(   1) = (  -0.0000654   0.0000190   0.0001361  )
         2           Al  tau(   2) = (   0.5001592   0.4996200   0.0001406  )
         3           Al  tau(   3) = (   0.4998143   0.0000610   0.5005910  )
         4           Al  tau(   4) = (  -0.0000400   0.5004374   0.5003674  )

     number of k points=    63  Marzari-Vanderbilt smearing, width (Ry)=  0.0010
                       cart. coord. in units 2pi/alat
        k(    1) = (   0.1000000   0.1000000   0.1000000), wk =   0.0320000
        k(    2) = (   0.1000000   0.1000000   0.3000000), wk =   0.0320000
        k(    3) = (   0.1000000   0.1000000  -0.5000000), wk =   0.0320000
        k(    4) = (   0.1000000   0.3000000   0.3000000), wk =   0.0320000
        k(    5) = (   0.1000000   0.3000000  -0.5000000), wk =   0.0320000
        k(    6) = (   0.1000000  -0.5000000  -0.5000000), wk =   0.0320000
        k(    7) = (   0.3000000   0.3000000   0.3000000), wk =   0.0320000
        k(    8) = (   0.3000000   0.3000000  -0.5000000), wk =   0.0320000
        k(    9) = (   0.3000000  -0.5000000  -0.5000000), wk =   0.0320000
        k(   10) = (  -0.5000000  -0.5000000  -0.5000000), wk =   0.0160000
        k(   11) = (  -0.1000000  -0.1000000   0.1000000), wk =   0.0320000
        k(   12) = (  -0.1000000   0.1000000  -0.1000000), wk =   0.0320000
        k(   13) = (   0.1000000  -0.1000000  -0.1000000), wk =   0.0320000
        k(   14) = (  -0.1000000  -0.1000000   0.3000000), wk =   0.0320000
        k(   15) = (  -0.1000000   0.1000000  -0.3000000), wk =   0.0320000
        k(   16) = (   0.1000000  -0.1000000  -0.3000000), wk =   0.0320000
        k(   17) = (   0.3000000  -0.1000000   0.1000000), wk =   0.0320000
        k(   18) = (  -0.3000000  -0.1000000  -0.1000000), wk =   0.0320000
        k(   19) = (   0.3000000   0.1000000  -0.1000000), wk =   0.0320000
        k(   20) = (  -0.3000000   0.1000000   0.1000000), wk =   0.0320000
        k(   21) = (  -0.1000000   0.3000000   0.1000000), wk =   0.0320000
        k(   22) = (  -0.1000000  -0.3000000  -0.1000000), wk =   0.0320000
        k(   23) = (   0.1000000   0.3000000  -0.1000000), wk =   0.0320000
        k(   24) = (   0.1000000  -0.3000000   0.1000000), wk =   0.0320000
        k(   25) = (  -0.1000000   0.1000000   0.5000000), wk =   0.0320000
        k(   26) = (  -0.5000000  -0.1000000   0.1000000), wk =   0.0320000
        k(   27) = (   0.5000000  -0.1000000  -0.1000000), wk =   0.0320000
        k(   28) = (  -0.1000000  -0.5000000   0.1000000), wk =   0.0320000
        k(   29) = (  -0.1000000   0.5000000  -0.1000000), wk =   0.0320000
        k(   30) = (  -0.1000000  -0.3000000   0.3000000), wk =   0.0320000
        k(   31) = (  -0.1000000   0.3000000  -0.3000000), wk =   0.0320000
        k(   32) = (   0.1000000  -0.3000000  -0.3000000), wk =   0.0320000
        k(   33) = (   0.3000000   0.1000000  -0.3000000), wk =   0.0320000
        k(   34) = (  -0.3000000  -0.1000000  -0.3000000), wk =   0.0320000
        k(   35) = (   0.3000000  -0.1000000   0.3000000), wk =   0.0320000
        k(   36) = (  -0.3000000   0.1000000   0.3000000), wk =   0.0320000
        k(   37) = (   0.3000000  -0.3000000   0.1000000), wk =   0.0320000
        k(   38) = (  -0.3000000  -0.3000000  -0.1000000), wk =   0.0320000
        k(   39) = (   0.3000000   0.3000000  -0.1000000), wk =   0.0320000
        k(   40) = (  -0.3000000   0.3000000   0.1000000), wk =   0.0320000
        k(   41) = (  -0.1000000   0.3000000   0.5000000), wk =   0.0320000
        k(   42) = (   0.3000000   0.1000000   0.5000000), wk =   0.0320000
        k(   43) = (   0.3000000  -0.1000000  -0.5000000), wk =   0.0320000
        k(   44) = (  -0.5000000  -0.3000000   0.1000000), wk =   0.0320000
        k(   45) = (   0.5000000  -0.3000000  -0.1000000), wk =   0.0320000
        k(   46) = (  -0.1000000  -0.5000000   0.3000000), wk =   0.0320000
        k(   47) = (  -0.1000000   0.5000000  -0.3000000), wk =   0.0320000
        k(   48) = (   0.3000000  -0.5000000   0.1000000), wk =   0.0320000
        k(   49) = (   0.3000000   0.5000000  -0.1000000), wk =   0.0320000
        k(   50) = (  -0.5000000   0.1000000   0.3000000), wk =   0.0320000
        k(   51) = (   0.5000000  -0.1000000   0.3000000), wk =   0.0320000
        k(   52) = (  -0.5000000   0.1000000   0.5000000), wk =   0.0320000
        k(   53) = (  -0.5000000   0.5000000   0.1000000), wk =   0.0320000
        k(   54) = (  -0.3000000  -0.3000000   0.3000000), wk =   0.0320000
        k(   55) = (  -0.3000000   0.3000000  -0.3000000), wk =   0.0320000
        k(   56) = (   0.3000000  -0.3000000  -0.3000000), wk =   0.0320000
        k(   57) = (  -0.3000000   0.3000000   0.5000000), wk =   0.0320000
        k(   58) = (  -0.5000000  -0.3000000   0.3000000), wk =   0.0320000
        k(   59) = (   0.5000000  -0.3000000  -0.3000000), wk =   0.0320000
        k(   60) = (  -0.3000000  -0.5000000   0.3000000), wk =   0.0320000
        k(   61) = (  -0.3000000   0.5000000  -0.3000000), wk =   0.0320000
        k(   62) = (  -0.5000000   0.3000000   0.5000000), wk =   0.0320000
        k(   63) = (  -0.5000000   0.5000000   0.3000000), wk =   0.0320000

     Dense  grid:     7497 G-vectors     FFT dimensions: (  25,  25,  25)

     Estimated max dynamical RAM per process >       9.81 MB

     Estimated total dynamical RAM >      39.25 MB

     Initial potential from superposition of free atoms

     starting charge   11.99084, renormalised to   12.00000
     Starting wfcs are   16 randomized atomic wfcs
     Checking if some PAW data can be deallocated... 

     total cpu time spent up to now is        1.0 secs

     Self-consistent Calculation

     iteration #  1     ecut=    50.00 Ry     beta= 0.10
     Davidson diagonalization with overlap
     ethr =  1.00E-02,  avg # of iterations =  3.1

     Threshold (ethr) on eigenvalues was too large:
     Diagonalizing with lowered threshold

     Davidson diagonalization with overlap
     ethr =  1.98E-04,  avg # of iterations =  3.5

     total cpu time spent up to now is        3.0 secs

     total energy              =    -158.00342621 Ry
     Harris-Foulkes estimate   =    -158.00425691 Ry
     estimated scf accuracy    <       0.02315250 Ry

     iteration #  2     ecut=    50.00 Ry     beta= 0.10
     Davidson diagonalization with overlap
     ethr =  1.93E-04,  avg # of iterations =  1.0

     total cpu time spent up to now is        3.6 secs

     total energy              =    -157.99730832 Ry
     Harris-Foulkes estimate   =    -158.00353957 Ry
     estimated scf accuracy    <       0.01996425 Ry

     iteration #  3     ecut=    50.00 Ry     beta= 0.10
     Davidson diagonalization with overlap
     ethr =  1.66E-04,  avg # of iterations =  1.0

     total cpu time spent up to now is        4.3 secs

     total energy              =    -157.99765761 Ry
     Harris-Foulkes estimate   =    -157.99770200 Ry
     estimated scf accuracy    <       0.00011224 Ry

     iteration #  4     ecut=    50.00 Ry     beta= 0.10
     Davidson diagonalization with overlap
     ethr =  9.35E-07,  avg # of iterations =  4.3

     total cpu time spent up to now is        5.5 secs

     total energy              =    -157.99771672 Ry
     Harris-Foulkes estimate   =    -157.99773505 Ry
     estimated scf accuracy    <       0.00007679 Ry

     iteration #  5     ecut=    50.00 Ry     beta= 0.10
     Davidson diagonalization with overlap
     ethr =  6.40E-07,  avg # of iterations =  1.0

     total cpu time spent up to now is        6.2 secs

     total energy              =    -157.99766972 Ry
     Harris-Foulkes estimate   =    -157.99771909 Ry
     estimated scf accuracy    <       0.00005142 Ry

     iteration #  6     ecut=    50.00 Ry     beta= 0.10
     Davidson diagonalization with overlap
     ethr =  4.28E-07,  avg # of iterations =  2.0

     total cpu time spent up to now is        7.0 secs

     total energy              =    -157.99767995 Ry
     Harris-Foulkes estimate   =    -157.99767889 Ry
     estimated scf accuracy    <       0.00000368 Ry

     iteration #  7     ecut=    50.00 Ry     beta= 0.10
     Davidson diagonalization with overlap
     ethr =  3.06E-08,  avg # of iterations =  1.4

     total cpu time spent up to now is        7.6 secs

     total energy              =    -157.99768135 Ry
     Harris-Foulkes estimate   =    -157.99768012 Ry
     estimated scf accuracy    <       0.00000334 Ry

     iteration #  8     ecut=    50.00 Ry     beta= 0.10
     Davidson diagonalization with overlap
     ethr =  2.78E-08,  avg # of iterations =  2.0

     total cpu time spent up to now is        8.5 secs

     End of self-consistent calculation

          k = 0.1000 0.1000 0.1000 (  2647 PWs)   bands (ev):

    -2.9626   4.0419   4.0427   4.0432   7.7418   7.7429   7.7438  10.7605
    10.7618  10.7630

          k = 0.1000 0.1000 0.3000 (  2672 PWs)   bands (ev):

    -2.2402   1.3145   4.7246   4.7256   8.0301   8.0338   8.5347   8.5364
    11.3552  11.7951

          k = 0.1000 0.1000-0.5000 (  2658 PWs)   bands (ev):

    -0.8102  -0.8025   5.9690   5.9690   6.2095   6.2098   9.5126   9.5126
    10.1723  10.1726

          k = 0.1000 0.3000 0.3000 (  2669 PWs)   bands (ev):

    -1.5214   2.0151   2.0160   5.3095   5.5746   8.7944   8.7964   9.1488
    12.1855  12.1893

          k = 0.1000 0.3000-0.5000 (  2656 PWs)   bands (ev):

    -0.0985  -0.0908   3.4024   3.4102   6.7749   6.7831  10.1381  10.1467
    10.4832  10.4905

          k = 0.1000-0.5000-0.5000 (  2668 PWs)   bands (ev):

     1.3141   1.3144   1.3218   1.3222   8.1266   8.1271   8.1351   8.1357
    11.8251  11.8297

          k = 0.3000 0.3000 0.3000 (  2653 PWs)   bands (ev):

    -0.8061   2.7119   2.7128   2.7134   6.1656   6.1667   6.1675   9.5489
    13.0695  13.0708

          k = 0.3000 0.3000-0.5000 (  2644 PWs)   bands (ev):

     0.6098   0.6175   3.9820   3.9821   4.2301   4.2304   7.5246   7.5327
    14.5671  14.5675

          k = 0.3000-0.5000-0.5000 (  2660 PWs)   bands (ev):

     2.0153   2.0157   2.0231   2.0235   5.4845   5.4849   5.4924   5.4929
    15.6204  15.6260

          k =-0.5000-0.5000-0.5000 (  2608 PWs)   bands (ev):

     3.3106   3.3106   3.3107   3.3108   3.5268   3.5269   3.5271   3.5272
    19.3089  19.3090

          k =-0.1000-0.1000 0.1000 (  2647 PWs)   bands (ev):

    -2.9626   4.0421   4.0425   4.0431   7.7421   7.7428   7.7436  10.7608
    10.7617  10.7628

          k =-0.1000 0.1000-0.1000 (  2647 PWs)   bands (ev):

    -2.9626   4.0422   4.0427   4.0429   7.7422   7.7429   7.7434  10.7610
    10.7618  10.7624

          k = 0.1000-0.1000-0.1000 (  2647 PWs)   bands (ev):

    -2.9626   4.0421   4.0425   4.0431   7.7422   7.7428   7.7435  10.7609
    10.7617  10.7626

          k =-0.1000-0.1000 0.3000 (  2672 PWs)   bands (ev):

    -2.2402   1.3145   4.7246   4.7256   8.0301   8.0338   8.5347   8.5364
    11.3552  11.7947

          k =-0.1000 0.1000-0.3000 (  2672 PWs)   bands (ev):

    -2.2402   1.3145   4.7249   4.7254   8.0311   8.0328   8.5352   8.5359
    11.3552  11.7953

          k = 0.1000-0.1000-0.3000 (  2672 PWs)   bands (ev):

    -2.2402   1.3145   4.7249   4.7254   8.0311   8.0328   8.5352   8.5360
    11.3552  11.7949

          k = 0.3000-0.1000 0.1000 (  2672 PWs)   bands (ev):

    -2.2402   1.3145   4.7249   4.7254   8.0311   8.0328   8.5352   8.5360
    11.3552  11.7948

          k =-0.3000-0.1000-0.1000 (  2672 PWs)   bands (ev):

    -2.2402   1.3145   4.7247   4.7256   8.0304   8.0335   8.5348   8.5363
    11.3552  11.7946

          k = 0.3000 0.1000-0.1000 (  2672 PWs)   bands (ev):

    -2.2402   1.3145   4.7249   4.7254   8.0311   8.0328   8.5351   8.5359
    11.3552  11.7950

          k =-0.3000 0.1000 0.1000 (  2672 PWs)   bands (ev):

    -2.2402   1.3145   4.7247   4.7256   8.0304   8.0335   8.5348   8.5363
    11.3552  11.7947

          k =-0.1000 0.3000 0.1000 (  2672 PWs)   bands (ev):

    -2.2402   1.3145   4.7250   4.7252   8.0317   8.0322   8.5354   8.5357
    11.3552  11.7944

          k =-0.1000-0.3000-0.1000 (  2672 PWs)   bands (ev):

    -2.2402   1.3145   4.7249   4.7254   8.0310   8.0329   8.5351   8.5360
    11.3552  11.7945

          k = 0.1000 0.3000-0.1000 (  2672 PWs)   bands (ev):

    -2.2402   1.3145   4.7250   4.7252   8.0317   8.0322   8.5354   8.5357
    11.3552  11.7943

          k = 0.1000-0.3000 0.1000 (  2672 PWs)   bands (ev):

    -2.2402   1.3145   4.7249   4.7254   8.0310   8.0329   8.5351   8.5360
    11.3552  11.7942

          k =-0.1000 0.1000 0.5000 (  2658 PWs)   bands (ev):

    -0.8102  -0.8025   5.9689   5.9691   6.2096   6.2097   9.5126   9.5127
    10.1724  10.1725

          k =-0.5000-0.1000 0.1000 (  2658 PWs)   bands (ev):

    -0.8068  -0.8059   5.9690   5.9691   6.2095   6.2096   9.5126   9.5126
    10.1723  10.1725

          k = 0.5000-0.1000-0.1000 (  2658 PWs)   bands (ev):

    -0.8068  -0.8059   5.9690   5.9691   6.2095   6.2096   9.5126   9.5127
    10.1723  10.1725

          k =-0.1000-0.5000 0.1000 (  2658 PWs)   bands (ev):

    -0.8065  -0.8062   5.9690   5.9692   6.2095   6.2096   9.5126   9.5127
    10.1724  10.1724

          k =-0.1000 0.5000-0.1000 (  2658 PWs)   bands (ev):

    -0.8065  -0.8062   5.9690   5.9691   6.2095   6.2096   9.5126   9.5127
    10.1724  10.1725

          k =-0.1000-0.3000 0.3000 (  2669 PWs)   bands (ev):

    -1.5214   2.0153   2.0158   5.3095   5.5746   8.7948   8.7959   9.1488
    12.1865  12.1892

          k =-0.1000 0.3000-0.3000 (  2669 PWs)   bands (ev):

    -1.5214   2.0153   2.0158   5.3095   5.5746   8.7948   8.7959   9.1488
    12.1869  12.1892

          k = 0.1000-0.3000-0.3000 (  2669 PWs)   bands (ev):

    -1.5214   2.0151   2.0160   5.3095   5.5746   8.7944   8.7964   9.1488
    12.1858  12.1902

          k = 0.3000 0.1000-0.3000 (  2669 PWs)   bands (ev):

    -1.5214   2.0154   2.0156   5.3095   5.5746   8.7952   8.7955   9.1488
    12.1875  12.1885

          k =-0.3000-0.1000-0.3000 (  2669 PWs)   bands (ev):

    -1.5214   2.0153   2.0158   5.3095   5.5746   8.7948   8.7960   9.1489
    12.1860  12.1892

          k = 0.3000-0.1000 0.3000 (  2669 PWs)   bands (ev):

    -1.5214   2.0153   2.0158   5.3095   5.5746   8.7948   8.7960   9.1488
    12.1866  12.1890

          k =-0.3000 0.1000 0.3000 (  2669 PWs)   bands (ev):

    -1.5214   2.0154   2.0156   5.3095   5.5746   8.7952   8.7955   9.1489
    12.1877  12.1884

          k = 0.3000-0.3000 0.1000 (  2669 PWs)   bands (ev):

    -1.5214   2.0153   2.0158   5.3095   5.5746   8.7948   8.7959   9.1488
    12.1867  12.1882

          k =-0.3000-0.3000-0.1000 (  2669 PWs)   bands (ev):

    -1.5214   2.0150   2.0161   5.3095   5.5746   8.7942   8.7966   9.1488
    12.1855  12.1898

          k = 0.3000 0.3000-0.1000 (  2669 PWs)   bands (ev):

    -1.5214   2.0150   2.0161   5.3095   5.5746   8.7942   8.7966   9.1488
    12.1855  12.1904

          k =-0.3000 0.3000 0.1000 (  2669 PWs)   bands (ev):

    -1.5214   2.0153   2.0158   5.3095   5.5746   8.7948   8.7959   9.1488
    12.1861  12.1893

          k =-0.1000 0.3000 0.5000 (  2656 PWs)   bands (ev):

    -0.0985  -0.0908   3.4024   3.4102   6.7749   6.7831  10.1381  10.1467
    10.4832  10.4905

          k = 0.3000 0.1000 0.5000 (  2656 PWs)   bands (ev):

    -0.0985  -0.0908   3.4024   3.4102   6.7749   6.7831  10.1381  10.1467
    10.4832  10.4905

          k = 0.3000-0.1000-0.5000 (  2656 PWs)   bands (ev):

    -0.0985  -0.0908   3.4024   3.4102   6.7749   6.7831  10.1381  10.1467
    10.4832  10.4905

          k =-0.5000-0.3000 0.1000 (  2656 PWs)   bands (ev):

    -0.0951  -0.0942   3.4059   3.4067   6.7785   6.7795  10.1419  10.1429
    10.4864  10.4873

          k = 0.5000-0.3000-0.1000 (  2656 PWs)   bands (ev):

    -0.0951  -0.0942   3.4059   3.4067   6.7785   6.7795  10.1419  10.1429
    10.4865  10.4873

          k =-0.1000-0.5000 0.3000 (  2656 PWs)   bands (ev):

    -0.0948  -0.0945   3.4061   3.4065   6.7788   6.7792  10.1422  10.1426
    10.4867  10.4870

          k =-0.1000 0.5000-0.3000 (  2656 PWs)   bands (ev):

    -0.0948  -0.0945   3.4061   3.4065   6.7788   6.7792  10.1423  10.1426
    10.4867  10.4870

          k = 0.3000-0.5000 0.1000 (  2656 PWs)   bands (ev):

    -0.0948  -0.0945   3.4061   3.4064   6.7788   6.7792  10.1422  10.1426
    10.4867  10.4870

          k = 0.3000 0.5000-0.1000 (  2656 PWs)   bands (ev):

    -0.0948  -0.0945   3.4061   3.4064   6.7788   6.7792  10.1422  10.1426
    10.4867  10.4870

          k =-0.5000 0.1000 0.3000 (  2656 PWs)   bands (ev):

    -0.0951  -0.0942   3.4059   3.4067   6.7785   6.7795  10.1419  10.1429
    10.4865  10.4873

          k = 0.5000-0.1000 0.3000 (  2656 PWs)   bands (ev):

    -0.0951  -0.0942   3.4059   3.4067   6.7785   6.7795  10.1419  10.1429
    10.4864  10.4873

          k =-0.5000 0.1000 0.5000 (  2668 PWs)   bands (ev):

     1.3139   1.3146   1.3215   1.3225   8.1265   8.1273   8.1348   8.1359
    11.8286  11.8322

          k =-0.5000 0.5000 0.1000 (  2668 PWs)   bands (ev):

     1.3173   1.3178   1.3185   1.3189   8.1299   8.1305   8.1317   8.1324
    11.8284  11.8287

          k =-0.3000-0.3000 0.3000 (  2653 PWs)   bands (ev):

    -0.8061   2.7121   2.7127   2.7133   6.1659   6.1665   6.1673   9.5489
    13.0698  13.0705

          k =-0.3000 0.3000-0.3000 (  2653 PWs)   bands (ev):

    -0.8061   2.7122   2.7128   2.7131   6.1660   6.1667   6.1671   9.5489
    13.0702  13.0708

          k = 0.3000-0.3000-0.3000 (  2653 PWs)   bands (ev):

    -0.8061   2.7122   2.7127   2.7132   6.1660   6.1666   6.1672   9.5489
    13.0697  13.0707

          k =-0.3000 0.3000 0.5000 (  2644 PWs)   bands (ev):

     0.6098   0.6175   3.9820   3.9822   4.2302   4.2303   7.5246   7.5327
    14.5667  14.5672

          k =-0.5000-0.3000 0.3000 (  2644 PWs)   bands (ev):

     0.6132   0.6141   3.9821   3.9821   4.2301   4.2302   7.5282   7.5291
    14.5665  14.5674

          k = 0.5000-0.3000-0.3000 (  2644 PWs)   bands (ev):

     0.6132   0.6141   3.9821   3.9822   4.2301   4.2302   7.5282   7.5291
    14.5666  14.5674

          k =-0.3000-0.5000 0.3000 (  2644 PWs)   bands (ev):

     0.6135   0.6138   3.9821   3.9822   4.2301   4.2302   7.5285   7.5288
    14.5670  14.5673

          k =-0.3000 0.5000-0.3000 (  2644 PWs)   bands (ev):

     0.6135   0.6138   3.9821   3.9822   4.2301   4.2302   7.5285   7.5288
    14.1688  14.5674

          k =-0.5000 0.3000 0.5000 (  2660 PWs)   bands (ev):

     2.0151   2.0159   2.0227   2.0238   5.4843   5.4851   5.4921   5.4932
    15.6183  15.6240

          k =-0.5000 0.5000 0.3000 (  2660 PWs)   bands (ev):

     2.0186   2.0190   2.0198   2.0202   5.4878   5.4883   5.4891   5.4895
    15.6225  15.6228

     the Fermi energy is     8.0361 ev

!    total energy              =    -157.99768214 Ry
     Harris-Foulkes estimate   =    -157.99768196 Ry
     estimated scf accuracy    <       0.00000017 Ry

     total all-electron energy =     -1942.568804 Ry

     The total energy is the sum of the following terms:

     one-electron contribution =      12.66367945 Ry
     hartree contribution      =       0.02355895 Ry
     xc contribution           =     -10.36182011 Ry
     ewald contribution        =     -21.61650270 Ry
     one-center paw contrib.   =    -138.70649519 Ry
     smearing contrib. (-TS)   =      -0.00010254 Ry

     convergence has been achieved in   8 iterations

     Forces acting on atoms (cartesian axes, Ry/au):

     atom    1 type  1   force =     0.00002328   -0.00005992    0.00031322
     atom    2 type  1   force =     0.00022806   -0.00066454    0.00032645
     atom    3 type  1   force =    -0.00032304    0.00004563   -0.00015583
     atom    4 type  1   force =     0.00007170    0.00067883   -0.00048384

     Total force =     0.001238     Total SCF correction =     0.000042


     Computing stress (Cartesian axis) and pressure

          total   stress  (Ry/bohr**3)                   (kbar)     P=   -4.04
  -0.00002757   0.00000001  -0.00000002         -4.06      0.00     -0.00
   0.00000001  -0.00002727   0.00000010          0.00     -4.01      0.02
  -0.00000002   0.00000010  -0.00002764         -0.00      0.02     -4.07


     Writing output data file fe_scf_fcc_2.save/

     init_run     :      0.52s CPU      0.55s WALL (       1 calls)
     electrons    :      7.08s CPU      7.45s WALL (       1 calls)
     forces       :      0.16s CPU      0.16s WALL (       1 calls)
     stress       :      0.30s CPU      0.30s WALL (       1 calls)

     Called by init_run:
     wfcinit      :      0.42s CPU      0.44s WALL (       1 calls)
     potinit      :      0.04s CPU      0.05s WALL (       1 calls)
     hinit0       :      0.05s CPU      0.05s WALL (       1 calls)

     Called by electrons:
     c_bands      :      5.91s CPU      6.20s WALL (       9 calls)
     sum_band     :      0.77s CPU      0.84s WALL (       9 calls)
     v_of_rho     :      0.02s CPU      0.02s WALL (       9 calls)
     newd         :      0.02s CPU      0.02s WALL (       9 calls)
     PAW_pot      :      0.39s CPU      0.41s WALL (       9 calls)
     mix_rho      :      0.00s CPU      0.00s WALL (       9 calls)

     Called by c_bands:
     init_us_2    :      0.20s CPU      0.21s WALL (    1323 calls)
     cegterg      :      5.55s CPU      5.82s WALL (     567 calls)

     Called by sum_band:
     sum_band:bec :      0.00s CPU      0.00s WALL (     567 calls)
     addusdens    :      0.01s CPU      0.01s WALL (       9 calls)

     Called by *egterg:
     h_psi        :      3.72s CPU      3.90s WALL (    1846 calls)
     s_psi        :      0.53s CPU      0.55s WALL (    1846 calls)
     g_psi        :      0.03s CPU      0.04s WALL (    1216 calls)
     cdiaghg      :      0.29s CPU      0.30s WALL (    1720 calls)

     Called by h_psi:
     h_psi:pot    :      3.69s CPU      3.87s WALL (    1846 calls)
     h_psi:calbec :      0.73s CPU      0.76s WALL (    1846 calls)
     vloc_psi     :      2.43s CPU      2.54s WALL (    1846 calls)
     add_vuspsi   :      0.53s CPU      0.57s WALL (    1846 calls)

     General routines
     calbec       :      1.14s CPU      1.19s WALL (    2728 calls)
     fft          :      0.01s CPU      0.01s WALL (     125 calls)
     ffts         :      0.00s CPU      0.00s WALL (       9 calls)
     fftw         :      2.61s CPU      2.75s WALL (   35844 calls)

     Parallel routines
     fft_scatt_xy :      0.30s CPU      0.31s WALL (   35978 calls)
     fft_scatt_yz :      1.25s CPU      1.32s WALL (   35978 calls)

     PWSCF        :      8.59s CPU      9.09s WALL


   This run was terminated on:  15:59:53  24Feb2020            

=------------------------------------------------------------------------------=
   JOB DONE.
=------------------------------------------------------------------------------=
