
     Program PWSCF v.6.4.1 starts on 24Feb2020 at 16: 3:21 

     This program is part of the open-source Quantum ESPRESSO suite
     for quantum simulation of materials; please cite
         "P. Giannozzi et al., J. Phys.:Condens. Matter 21 395502 (2009);
         "P. Giannozzi et al., J. Phys.:Condens. Matter 29 465901 (2017);
          URL http://www.quantum-espresso.org", 
     in publications or presentations arising from this work. More details at
     http://www.quantum-espresso.org/quote

     Parallel version (MPI), running on     4 processors

     MPI processes distributed on     1 nodes
     R & G space division:  proc/nbgrp/npool/nimage =       4
     Reading input from /cloud/Code/python/py_pwscf_converge/src/example2/wd/runpwscf/file_10237.in
Warning: card &IONS ignored
Warning: card ION_DYNAMICS = 'BFGS', ignored
Warning: card / ignored
Warning: card &CELL ignored
Warning: card CELL_DYNAMICS = 'BFGS', ignored
Warning: card CELL_FACTOR = 2.0, ignored
Warning: card PRESS = 0.0, ignored
Warning: card / ignored

     Current dimensions of program PWSCF are:
     Max number of different atomic species (ntypx) = 10
     Max number of k-points (npk) =  40000
     Max angular momentum in pseudopotentials (lmaxx) =  3
               file Al.pbe-nl-kjpaw_psl.1.0.0.UPF: wavefunction(s)  3S 3P renormalized

     Subspace diagonalization in iterative solution of the eigenvalue problem:
     a serial algorithm will be used


     Parallelization info
     --------------------
     sticks:   dense  smooth     PW     G-vecs:    dense   smooth      PW
     Min         115     115     70                 1873     1873     893
     Max         117     117     72                 1875     1875     894
     Sum         465     465    285                 7497     7497    3575



     bravais-lattice index     =            0
     lattice parameter (alat)  =       7.6356  a.u.
     unit-cell volume          =     445.1737 (a.u.)^3
     number of atoms/cell      =            4
     number of atomic types    =            1
     number of electrons       =        12.00
     number of Kohn-Sham states=           10
     kinetic-energy cutoff     =      50.0000  Ry
     charge density cutoff     =     100.0000  Ry
     convergence threshold     =      1.0E-06
     mixing beta               =       0.1000
     number of iterations used =           10  TF        mixing
     Exchange-correlation      = SLA PW PBX PBC ( 1  4  3  4 0 0)

     celldm(1)=   7.635600  celldm(2)=   0.000000  celldm(3)=   0.000000
     celldm(4)=   0.000000  celldm(5)=   0.000000  celldm(6)=   0.000000

     crystal axes: (cart. coord. in units of alat)
               a(1) = (   1.000000   0.000000   0.000000 )  
               a(2) = (   0.000000   1.000000   0.000000 )  
               a(3) = (   0.000000   0.000000   1.000000 )  

     reciprocal axes: (cart. coord. in units 2 pi/alat)
               b(1) = (  1.000000  0.000000  0.000000 )  
               b(2) = (  0.000000  1.000000  0.000000 )  
               b(3) = (  0.000000  0.000000  1.000000 )  


     PseudoPot. # 1 for Al read from file:
     /opt/pp/Al.pbe-nl-kjpaw_psl.1.0.0.UPF
     MD5 check sum: 1b67f78b73fe58c7924490f171ce8a1e
     Pseudo is Projector augmented-wave + core cor, Zval =  3.0
     Generated using "atomic" code by A. Dal Corso v.6.3
     Shape of augmentation charge: PSQ
     Using radial grid of 1135 points,  4 beta functions with: 
                l(1) =   0
                l(2) =   0
                l(3) =   1
                l(4) =   1
     Q(r) pseudized with 0 coefficients 


     atomic species   valence    mass     pseudopotential
        Al             3.00    26.98200     Al( 1.00)

     No symmetry found



   Cartesian axes

     site n.     atom                  positions (alat units)
         1           Al  tau(   1) = (  -0.0000654   0.0000190   0.0001361  )
         2           Al  tau(   2) = (   0.5001592   0.4996200   0.0001406  )
         3           Al  tau(   3) = (   0.4998143   0.0000610   0.5005910  )
         4           Al  tau(   4) = (  -0.0000400   0.5004374   0.5003674  )

     number of k points=   172  Marzari-Vanderbilt smearing, width (Ry)=  0.0300

     Number of k-points >= 100: set verbosity='high' to print them.

     Dense  grid:     7497 G-vectors     FFT dimensions: (  25,  25,  25)

     Estimated max dynamical RAM per process >      20.86 MB

     Estimated total dynamical RAM >      83.43 MB

     Initial potential from superposition of free atoms

     starting charge   11.99084, renormalised to   12.00000
     Starting wfcs are   16 randomized atomic wfcs
     Checking if some PAW data can be deallocated... 

     total cpu time spent up to now is        1.5 secs

     Self-consistent Calculation

     iteration #  1     ecut=    50.00 Ry     beta= 0.10
     Davidson diagonalization with overlap
     ethr =  1.00E-02,  avg # of iterations =  3.4

     Threshold (ethr) on eigenvalues was too large:
     Diagonalizing with lowered threshold

     Davidson diagonalization with overlap
     ethr =  1.97E-04,  avg # of iterations =  3.1

     total cpu time spent up to now is        5.7 secs

     total energy              =    -158.01246570 Ry
     Harris-Foulkes estimate   =    -158.01327425 Ry
     estimated scf accuracy    <       0.02287745 Ry

     iteration #  2     ecut=    50.00 Ry     beta= 0.10
     Davidson diagonalization with overlap
     ethr =  1.91E-04,  avg # of iterations =  1.0

     total cpu time spent up to now is        7.1 secs

     total energy              =    -158.00646558 Ry
     Harris-Foulkes estimate   =    -158.01256918 Ry
     estimated scf accuracy    <       0.01974046 Ry

     iteration #  3     ecut=    50.00 Ry     beta= 0.10
     Davidson diagonalization with overlap
     ethr =  1.65E-04,  avg # of iterations =  1.0

     total cpu time spent up to now is        8.6 secs

     total energy              =    -158.00680950 Ry
     Harris-Foulkes estimate   =    -158.00684627 Ry
     estimated scf accuracy    <       0.00008105 Ry

     iteration #  4     ecut=    50.00 Ry     beta= 0.10
     Davidson diagonalization with overlap
     ethr =  6.75E-07,  avg # of iterations =  4.3

     total cpu time spent up to now is       11.5 secs

     total energy              =    -158.00687048 Ry
     Harris-Foulkes estimate   =    -158.00688330 Ry
     estimated scf accuracy    <       0.00005484 Ry

     iteration #  5     ecut=    50.00 Ry     beta= 0.10
     Davidson diagonalization with overlap
     ethr =  4.57E-07,  avg # of iterations =  1.0

     total cpu time spent up to now is       12.9 secs

     total energy              =    -158.00682993 Ry
     Harris-Foulkes estimate   =    -158.00687206 Ry
     estimated scf accuracy    <       0.00004172 Ry

     iteration #  6     ecut=    50.00 Ry     beta= 0.10
     Davidson diagonalization with overlap
     ethr =  3.48E-07,  avg # of iterations =  2.0

     total cpu time spent up to now is       14.9 secs

     End of self-consistent calculation

     Number of k-points >= 100: set verbosity='high' to print the bands.

     the Fermi energy is     7.9087 ev

!    total energy              =    -158.00683923 Ry
     Harris-Foulkes estimate   =    -158.00683942 Ry
     estimated scf accuracy    <       0.00000093 Ry

     total all-electron energy =     -1942.577961 Ry

     The total energy is the sum of the following terms:

     one-electron contribution =      12.65827762 Ry
     hartree contribution      =       0.02401231 Ry
     xc contribution           =     -10.36286478 Ry
     ewald contribution        =     -21.61650270 Ry
     one-center paw contrib.   =    -138.70809524 Ry
     smearing contrib. (-TS)   =      -0.00166645 Ry

     convergence has been achieved in   6 iterations

     Forces acting on atoms (cartesian axes, Ry/au):

     atom    1 type  1   force =     0.00006136   -0.00004623    0.00022458
     atom    2 type  1   force =    -0.00017918    0.00021892    0.00022475
     atom    3 type  1   force =     0.00005744    0.00005298   -0.00033583
     atom    4 type  1   force =     0.00006037   -0.00022567   -0.00011351

     Total force =     0.000611     Total SCF correction =     0.000234
     SCF correction compared to forces is large: reduce conv_thr to get better values


     Computing stress (Cartesian axis) and pressure

          total   stress  (Ry/bohr**3)                   (kbar)     P=   -2.88
  -0.00001957   0.00000001   0.00000001         -2.88      0.00      0.00
   0.00000001  -0.00001956  -0.00000000          0.00     -2.88     -0.00
   0.00000001  -0.00000000  -0.00001955          0.00     -0.00     -2.88


     Writing output data file fe_scf_fcc_2.save/

     init_run     :      1.00s CPU      1.08s WALL (       1 calls)
     electrons    :     12.64s CPU     13.35s WALL (       1 calls)
     forces       :      0.36s CPU      0.37s WALL (       1 calls)
     stress       :      0.64s CPU      0.64s WALL (       1 calls)

     Called by init_run:
     wfcinit      :      0.90s CPU      0.97s WALL (       1 calls)
     potinit      :      0.05s CPU      0.05s WALL (       1 calls)
     hinit0       :      0.05s CPU      0.06s WALL (       1 calls)

     Called by electrons:
     c_bands      :     10.93s CPU     11.52s WALL (       7 calls)
     sum_band     :      1.44s CPU      1.54s WALL (       7 calls)
     v_of_rho     :      0.01s CPU      0.02s WALL (       7 calls)
     newd         :      0.01s CPU      0.01s WALL (       7 calls)
     PAW_pot      :      0.29s CPU      0.30s WALL (       7 calls)
     mix_rho      :      0.00s CPU      0.00s WALL (       7 calls)

     Called by c_bands:
     init_us_2    :      0.33s CPU      0.35s WALL (    2924 calls)
     cegterg      :     10.33s CPU     10.90s WALL (    1204 calls)

     Called by sum_band:
     sum_band:bec :      0.01s CPU      0.01s WALL (    1204 calls)
     addusdens    :      0.01s CPU      0.01s WALL (       7 calls)

     Called by *egterg:
     h_psi        :      6.77s CPU      7.18s WALL (    4089 calls)
     s_psi        :      0.75s CPU      0.79s WALL (    4089 calls)
     g_psi        :      0.05s CPU      0.05s WALL (    2713 calls)
     cdiaghg      :      0.55s CPU      0.58s WALL (    3745 calls)

     Called by h_psi:
     h_psi:pot    :      6.74s CPU      7.15s WALL (    4089 calls)
     h_psi:calbec :      1.32s CPU      1.41s WALL (    4089 calls)
     vloc_psi     :      4.67s CPU      4.95s WALL (    4089 calls)
     add_vuspsi   :      0.75s CPU      0.79s WALL (    4089 calls)

     General routines
     calbec       :      2.24s CPU      2.36s WALL (    6153 calls)
     fft          :      0.01s CPU      0.01s WALL (     103 calls)
     ffts         :      0.00s CPU      0.00s WALL (       7 calls)
     fftw         :      5.12s CPU      5.44s WALL (   80252 calls)

     Parallel routines
     fft_scatt_xy :      0.48s CPU      0.51s WALL (   80362 calls)
     fft_scatt_yz :      2.96s CPU      3.15s WALL (   80362 calls)

     PWSCF        :     15.15s CPU     16.01s WALL


   This run was terminated on:  16: 3:37  24Feb2020            

=------------------------------------------------------------------------------=
   JOB DONE.
=------------------------------------------------------------------------------=
