
     Program PWSCF v.6.3 starts on 30Oct2019 at  0:32: 4 

     This program is part of the open-source Quantum ESPRESSO suite
     for quantum simulation of materials; please cite
         "P. Giannozzi et al., J. Phys.:Condens. Matter 21 395502 (2009);
         "P. Giannozzi et al., J. Phys.:Condens. Matter 29 465901 (2017);
          URL http://www.quantum-espresso.org", 
     in publications or presentations arising from this work. More details at
     http://www.quantum-espresso.org/quote

     Parallel version (MPI), running on     1 processors

     MPI processes distributed on     1 nodes
     Reading input from /cloud/Code/python/py_pwscf_converge/src/example2/wd/runpwscf/file_10213.in
Warning: card &IONS ignored
Warning: card ION_DYNAMICS = 'BFGS', ignored
Warning: card / ignored
Warning: card &CELL ignored
Warning: card CELL_DYNAMICS = 'BFGS', ignored
Warning: card CELL_FACTOR = 2.0, ignored
Warning: card PRESS = 0.0, ignored
Warning: card / ignored

     Current dimensions of program PWSCF are:
     Max number of different atomic species (ntypx) = 10
     Max number of k-points (npk) =  40000
     Max angular momentum in pseudopotentials (lmaxx) =  3
               file Al.pbe-nl-kjpaw_psl.1.0.0.UPF: wavefunction(s)  3S 3P renormalized

     Subspace diagonalization in iterative solution of the eigenvalue problem:
     a serial algorithm will be used


     G-vector sticks info
     --------------------
     sticks:   dense  smooth     PW     G-vecs:    dense   smooth      PW
     Sum         341     261     89                 4697     3119     587



     bravais-lattice index     =            0
     lattice parameter (alat)  =       4.0400  a.u.
     unit-cell volume          =      65.9393 (a.u.)^3
     number of atoms/cell      =            2
     number of atomic types    =            1
     number of electrons       =         6.00
     number of Kohn-Sham states=            7
     kinetic-energy cutoff     =      50.0000  Ry
     charge density cutoff     =     260.0000  Ry
     convergence threshold     =      1.0E-06
     mixing beta               =       0.1000
     number of iterations used =           10  TF        mixing
     Exchange-correlation      = SLA PW PBX PBC ( 1  4  3  4 0 0)

     celldm(1)=   4.040000  celldm(2)=   0.000000  celldm(3)=   0.000000
     celldm(4)=   0.000000  celldm(5)=   0.000000  celldm(6)=   0.000000

     crystal axes: (cart. coord. in units of alat)
               a(1) = (   1.000000   0.000000   0.000000 )  
               a(2) = (   0.000000   1.000000   0.000000 )  
               a(3) = (   0.000000   0.000000   1.000000 )  

     reciprocal axes: (cart. coord. in units 2 pi/alat)
               b(1) = (  1.000000  0.000000  0.000000 )  
               b(2) = (  0.000000  1.000000  0.000000 )  
               b(3) = (  0.000000  0.000000  1.000000 )  


     PseudoPot. # 1 for Al read from file:
     /opt/pp/Al.pbe-nl-kjpaw_psl.1.0.0.UPF
     MD5 check sum: 1b67f78b73fe58c7924490f171ce8a1e
     Pseudo is Projector augmented-wave + core cor, Zval =  3.0
     Generated using "atomic" code by A. Dal Corso v.6.3
     Shape of augmentation charge: PSQ
     Using radial grid of 1135 points,  4 beta functions with: 
                l(1) =   0
                l(2) =   0
                l(3) =   1
                l(4) =   1
     Q(r) pseudized with 0 coefficients 


     atomic species   valence    mass     pseudopotential
        Al             3.00    26.98200     Al( 1.00)

     No symmetry found



   Cartesian axes

     site n.     atom                  positions (alat units)
         1           Al  tau(   1) = (  -0.0001235   0.0000359   0.0002572  )
         2           Al  tau(   2) = (   0.5003009   0.4992819   0.5002658  )

     number of k points=    32  Marzari-Vanderbilt smearing, width (Ry)=  0.0200
                       cart. coord. in units 2pi/alat
        k(    1) = (   0.1250000   0.1250000   0.1250000), wk =   0.0625000
        k(    2) = (   0.1250000   0.1250000   0.3750000), wk =   0.0625000
        k(    3) = (   0.1250000   0.3750000   0.3750000), wk =   0.0625000
        k(    4) = (   0.3750000   0.3750000   0.3750000), wk =   0.0625000
        k(    5) = (  -0.1250000  -0.1250000   0.1250000), wk =   0.0625000
        k(    6) = (  -0.1250000   0.1250000  -0.1250000), wk =   0.0625000
        k(    7) = (   0.1250000  -0.1250000  -0.1250000), wk =   0.0625000
        k(    8) = (  -0.1250000  -0.1250000   0.3750000), wk =   0.0625000
        k(    9) = (  -0.1250000   0.1250000  -0.3750000), wk =   0.0625000
        k(   10) = (   0.1250000  -0.1250000  -0.3750000), wk =   0.0625000
        k(   11) = (   0.3750000  -0.1250000   0.1250000), wk =   0.0625000
        k(   12) = (  -0.3750000  -0.1250000  -0.1250000), wk =   0.0625000
        k(   13) = (   0.3750000   0.1250000  -0.1250000), wk =   0.0625000
        k(   14) = (  -0.3750000   0.1250000   0.1250000), wk =   0.0625000
        k(   15) = (  -0.1250000   0.3750000   0.1250000), wk =   0.0625000
        k(   16) = (  -0.1250000  -0.3750000  -0.1250000), wk =   0.0625000
        k(   17) = (   0.1250000   0.3750000  -0.1250000), wk =   0.0625000
        k(   18) = (   0.1250000  -0.3750000   0.1250000), wk =   0.0625000
        k(   19) = (  -0.1250000  -0.3750000   0.3750000), wk =   0.0625000
        k(   20) = (  -0.1250000   0.3750000  -0.3750000), wk =   0.0625000
        k(   21) = (   0.1250000  -0.3750000  -0.3750000), wk =   0.0625000
        k(   22) = (   0.3750000   0.1250000  -0.3750000), wk =   0.0625000
        k(   23) = (  -0.3750000  -0.1250000  -0.3750000), wk =   0.0625000
        k(   24) = (   0.3750000  -0.1250000   0.3750000), wk =   0.0625000
        k(   25) = (  -0.3750000   0.1250000   0.3750000), wk =   0.0625000
        k(   26) = (   0.3750000  -0.3750000   0.1250000), wk =   0.0625000
        k(   27) = (  -0.3750000  -0.3750000  -0.1250000), wk =   0.0625000
        k(   28) = (   0.3750000   0.3750000  -0.1250000), wk =   0.0625000
        k(   29) = (  -0.3750000   0.3750000   0.1250000), wk =   0.0625000
        k(   30) = (  -0.3750000  -0.3750000   0.3750000), wk =   0.0625000
        k(   31) = (  -0.3750000   0.3750000  -0.3750000), wk =   0.0625000
        k(   32) = (   0.3750000  -0.3750000  -0.3750000), wk =   0.0625000

     Dense  grid:     4697 G-vectors     FFT dimensions: (  24,  24,  24)

     Smooth grid:     3119 G-vectors     FFT dimensions: (  20,  20,  20)

     Estimated max dynamical RAM per process >       8.48 MB

     Initial potential from superposition of free atoms

     starting charge    5.99542, renormalised to    6.00000
     Starting wfcs are    8 randomized atomic wfcs
     Checking if some PAW data can be deallocated... 

     total cpu time spent up to now is        0.9 secs

     Self-consistent Calculation

     iteration #  1     ecut=    50.00 Ry     beta= 0.10
     Davidson diagonalization with overlap
     ethr =  1.00E-02,  avg # of iterations =  4.2

     Threshold (ethr) on eigenvalues was too large:
     Diagonalizing with lowered threshold

     Davidson diagonalization with overlap
     ethr =  5.98E-04,  avg # of iterations =  1.0

     total cpu time spent up to now is        1.4 secs

     total energy              =     -76.87939125 Ry
     Harris-Foulkes estimate   =     -76.89100795 Ry
     estimated scf accuracy    <       0.03588881 Ry

     iteration #  2     ecut=    50.00 Ry     beta= 0.10
     Davidson diagonalization with overlap
     ethr =  5.98E-04,  avg # of iterations =  1.0

     total cpu time spent up to now is        1.7 secs

     total energy              =     -76.84876215 Ry
     Harris-Foulkes estimate   =     -76.87943685 Ry
     estimated scf accuracy    <       0.03071143 Ry

     iteration #  3     ecut=    50.00 Ry     beta= 0.10
     Davidson diagonalization with overlap
     ethr =  5.12E-04,  avg # of iterations =  1.9

     total cpu time spent up to now is        2.0 secs

     total energy              =     -76.85007364 Ry
     Harris-Foulkes estimate   =     -76.85177914 Ry
     estimated scf accuracy    <       0.00012909 Ry

     iteration #  4     ecut=    50.00 Ry     beta= 0.10
     Davidson diagonalization with overlap
     ethr =  2.15E-06,  avg # of iterations =  5.2

     total cpu time spent up to now is        2.3 secs

     total energy              =     -76.84824893 Ry
     Harris-Foulkes estimate   =     -76.85021259 Ry
     estimated scf accuracy    <       0.00008603 Ry

     iteration #  5     ecut=    50.00 Ry     beta= 0.10
     Davidson diagonalization with overlap
     ethr =  1.43E-06,  avg # of iterations =  2.1

     total cpu time spent up to now is        2.6 secs

     total energy              =     -76.84829355 Ry
     Harris-Foulkes estimate   =     -76.84829196 Ry
     estimated scf accuracy    <       0.00000261 Ry

     iteration #  6     ecut=    50.00 Ry     beta= 0.10
     Davidson diagonalization with overlap
     ethr =  4.35E-08,  avg # of iterations =  3.0

     total cpu time spent up to now is        2.9 secs

     End of self-consistent calculation

          k = 0.1250 0.1250 0.1250 (   401 PWs)   bands (ev):

     8.6280  25.4949  25.4949  34.8442  40.9217  40.9217  44.6732

          k = 0.1250 0.1250 0.3750 (   392 PWs)   bands (ev):

    12.3704  18.8182  28.7894  35.2810  35.8342  39.8866  43.3100

          k = 0.1250 0.3750 0.3750 (   389 PWs)   bands (ev):

    15.8087  20.9376  23.3191  28.1880  35.7283  37.8078  49.3834

          k = 0.3750 0.3750 0.3750 (   389 PWs)   bands (ev):

    18.9095  23.5359  23.5360  29.1300  29.1455  29.1470  46.3147

          k =-0.1250-0.1250 0.1250 (   401 PWs)   bands (ev):

     8.6280  25.4949  25.4949  34.8442  40.9217  40.9217  44.6732

          k =-0.1250 0.1250-0.1250 (   401 PWs)   bands (ev):

     8.6280  25.4949  25.4949  34.8443  40.9216  40.9217  44.6733

          k = 0.1250-0.1250-0.1250 (   401 PWs)   bands (ev):

     8.6280  25.4949  25.4949  34.8443  40.9216  40.9217  44.6733

          k =-0.1250-0.1250 0.3750 (   392 PWs)   bands (ev):

    12.3704  18.8182  28.7894  35.2810  35.8342  39.8866  43.3100

          k =-0.1250 0.1250-0.3750 (   392 PWs)   bands (ev):

    12.3704  18.8182  28.7894  35.2812  35.8340  39.8867  43.3100

          k = 0.1250-0.1250-0.3750 (   392 PWs)   bands (ev):

    12.3704  18.8182  28.7894  35.2812  35.8340  39.8867  43.3100

          k = 0.3750-0.1250 0.1250 (   392 PWs)   bands (ev):

    12.3704  18.8182  28.7894  35.2811  35.8341  39.8866  43.3100

          k =-0.3750-0.1250-0.1250 (   392 PWs)   bands (ev):

    12.3704  18.8182  28.7894  35.2812  35.8341  39.8867  43.3100

          k = 0.3750 0.1250-0.1250 (   392 PWs)   bands (ev):

    12.3704  18.8182  28.7894  35.2812  35.8340  39.8867  43.3100

          k =-0.3750 0.1250 0.1250 (   392 PWs)   bands (ev):

    12.3704  18.8182  28.7894  35.2811  35.8341  39.8866  43.3100

          k =-0.1250 0.3750 0.1250 (   392 PWs)   bands (ev):

    12.3704  18.8182  28.7894  35.2812  35.8340  39.8867  43.3100

          k =-0.1250-0.3750-0.1250 (   392 PWs)   bands (ev):

    12.3704  18.8182  28.7894  35.2813  35.8339  39.8867  43.3099

          k = 0.1250 0.3750-0.1250 (   392 PWs)   bands (ev):

    12.3704  18.8182  28.7894  35.2813  35.8340  39.8867  43.3099

          k = 0.1250-0.3750 0.1250 (   392 PWs)   bands (ev):

    12.3704  18.8182  28.7894  35.2812  35.8340  39.8866  43.3100

          k =-0.1250-0.3750 0.3750 (   389 PWs)   bands (ev):

    15.8087  20.9376  23.3190  28.1880  35.7283  37.8078  49.3834

          k =-0.1250 0.3750-0.3750 (   389 PWs)   bands (ev):

    15.8087  20.9376  23.3190  28.1880  35.7283  37.8078  49.3834

          k = 0.1250-0.3750-0.3750 (   389 PWs)   bands (ev):

    15.8087  20.9376  23.3190  28.1880  35.7283  37.8078  49.3834

          k = 0.3750 0.1250-0.3750 (   389 PWs)   bands (ev):

    15.8087  20.9376  23.3191  28.1880  35.7283  37.8078  49.3833

          k =-0.3750-0.1250-0.3750 (   389 PWs)   bands (ev):

    15.8087  20.9376  23.3191  28.1880  35.7283  37.8078  49.3833

          k = 0.3750-0.1250 0.3750 (   389 PWs)   bands (ev):

    15.8087  20.9376  23.3191  28.1880  35.7283  37.8078  49.3834

          k =-0.3750 0.1250 0.3750 (   389 PWs)   bands (ev):

    15.8087  20.9376  23.3191  28.1880  35.7283  37.8078  49.3834

          k = 0.3750-0.3750 0.1250 (   389 PWs)   bands (ev):

    15.8087  20.9376  23.3191  28.1879  35.7283  37.8078  49.3834

          k =-0.3750-0.3750-0.1250 (   389 PWs)   bands (ev):

    15.8087  20.9376  23.3190  28.1880  35.7283  37.8078  49.3834

          k = 0.3750 0.3750-0.1250 (   389 PWs)   bands (ev):

    15.8087  20.9376  23.3190  28.1880  35.7283  37.8078  49.3834

          k =-0.3750 0.3750 0.1250 (   389 PWs)   bands (ev):

    15.8087  20.9376  23.3191  28.1879  35.7283  37.8078  49.3834

          k =-0.3750-0.3750 0.3750 (   389 PWs)   bands (ev):

    18.9095  23.5359  23.5360  29.1300  29.1455  29.1470  46.3147

          k =-0.3750 0.3750-0.3750 (   389 PWs)   bands (ev):

    18.9095  23.5359  23.5359  29.1308  29.1455  29.1461  46.3147

          k = 0.3750-0.3750-0.3750 (   389 PWs)   bands (ev):

    18.9095  23.5359  23.5359  29.1308  29.1455  29.1462  46.3147

     the Fermi energy is    28.4323 ev

!    total energy              =     -76.84827657 Ry
     Harris-Foulkes estimate   =     -76.84829595 Ry
     estimated scf accuracy    <       0.00000064 Ry

     total all-electron energy =      -969.133838 Ry

     The total energy is the sum of the following terms:

     one-electron contribution =      16.33644278 Ry
     hartree contribution      =       0.09270614 Ry
     xc contribution           =      -7.03888359 Ry
     ewald contribution        =     -16.21439947 Ry
     one-center paw contrib.   =     -70.02503888 Ry
     smearing contrib. (-TS)   =       0.00089645 Ry

     convergence has been achieved in   6 iterations

     Forces acting on atoms (cartesian axes, Ry/au):

     atom    1 type  1   force =     0.00251706   -0.00452114    0.00006166
     atom    2 type  1   force =    -0.00251706    0.00452114   -0.00006166

     Total force =     0.007318     Total SCF correction =     0.000192


     Computing stress (Cartesian axis) and pressure

          total   stress  (Ry/bohr**3)                   (kbar)     P=10848.59
   0.07374728  -0.00000019   0.00000001      10848.60     -0.03      0.00
  -0.00000019   0.07374697   0.00000001         -0.03  10848.55      0.00
   0.00000001   0.00000001   0.07374740          0.00      0.00  10848.62


     Writing output data file fe_scf_fcc_2.save/

     init_run     :      0.46s CPU      0.47s WALL (       1 calls)
     electrons    :      2.00s CPU      2.05s WALL (       1 calls)
     forces       :      0.04s CPU      0.04s WALL (       1 calls)
     stress       :      0.12s CPU      0.12s WALL (       1 calls)

     Called by init_run:
     wfcinit      :      0.06s CPU      0.07s WALL (       1 calls)
     potinit      :      0.14s CPU      0.14s WALL (       1 calls)
     hinit0       :      0.25s CPU      0.25s WALL (       1 calls)

     Called by electrons:
     c_bands      :      0.98s CPU      1.01s WALL (       7 calls)
     sum_band     :      0.19s CPU      0.19s WALL (       7 calls)
     v_of_rho     :      0.09s CPU      0.09s WALL (       7 calls)
     newd         :      0.03s CPU      0.04s WALL (       7 calls)
     PAW_pot      :      0.84s CPU      0.84s WALL (       7 calls)
     mix_rho      :      0.01s CPU      0.01s WALL (       7 calls)

     Called by c_bands:
     init_us_2    :      0.07s CPU      0.06s WALL (     544 calls)
     cegterg      :      0.92s CPU      0.92s WALL (     224 calls)

     Called by sum_band:
     sum_band:bec :      0.00s CPU      0.00s WALL (     224 calls)
     addusdens    :      0.03s CPU      0.03s WALL (       7 calls)

     Called by *egterg:
     h_psi        :      0.79s CPU      0.75s WALL (     848 calls)
     s_psi        :      0.04s CPU      0.03s WALL (     848 calls)
     g_psi        :      0.00s CPU      0.01s WALL (     592 calls)
     cdiaghg      :      0.05s CPU      0.09s WALL (     784 calls)

     Called by h_psi:
     h_psi:pot    :      0.79s CPU      0.74s WALL (     848 calls)
     h_psi:calbec :      0.02s CPU      0.03s WALL (     848 calls)
     vloc_psi     :      0.73s CPU      0.68s WALL (     848 calls)
     add_vuspsi   :      0.04s CPU      0.03s WALL (     848 calls)

     General routines
     calbec       :      0.04s CPU      0.04s WALL (    1232 calls)
     fft          :      0.08s CPU      0.07s WALL (     116 calls)
     ffts         :      0.00s CPU      0.00s WALL (      14 calls)
     fftw         :      0.72s CPU      0.69s WALL (   10600 calls)
     interpolate  :      0.00s CPU      0.01s WALL (       7 calls)

     Parallel routines

     PWSCF        :     3.04s CPU         3.12s WALL


   This run was terminated on:   0:32: 7  30Oct2019            

=------------------------------------------------------------------------------=
   JOB DONE.
=------------------------------------------------------------------------------=
