
     Program PWSCF v.6.4.1 starts on 24Feb2020 at 15:55:57 

     This program is part of the open-source Quantum ESPRESSO suite
     for quantum simulation of materials; please cite
         "P. Giannozzi et al., J. Phys.:Condens. Matter 21 395502 (2009);
         "P. Giannozzi et al., J. Phys.:Condens. Matter 29 465901 (2017);
          URL http://www.quantum-espresso.org", 
     in publications or presentations arising from this work. More details at
     http://www.quantum-espresso.org/quote

     Parallel version (MPI), running on     4 processors

     MPI processes distributed on     1 nodes
     R & G space division:  proc/nbgrp/npool/nimage =       4
     Reading input from /cloud/Code/python/py_pwscf_converge/src/example2/wd/runpwscf/file_10178.in
Warning: card &IONS ignored
Warning: card ION_DYNAMICS = 'BFGS', ignored
Warning: card / ignored
Warning: card &CELL ignored
Warning: card CELL_DYNAMICS = 'BFGS', ignored
Warning: card CELL_FACTOR = 2.0, ignored
Warning: card PRESS = 0.0, ignored
Warning: card / ignored

     Current dimensions of program PWSCF are:
     Max number of different atomic species (ntypx) = 10
     Max number of k-points (npk) =  40000
     Max angular momentum in pseudopotentials (lmaxx) =  3
               file Al.pbe-nl-kjpaw_psl.1.0.0.UPF: wavefunction(s)  3S 3P renormalized

     Subspace diagonalization in iterative solution of the eigenvalue problem:
     a serial algorithm will be used


     Parallelization info
     --------------------
     sticks:   dense  smooth     PW     G-vecs:    dense   smooth      PW
     Min         325     115     35                 8817     1873     326
     Max         327     117     37                 8819     1875     329
     Sum        1305     465    145                35273     7497    1309



     bravais-lattice index     =            0
     lattice parameter (alat)  =       7.6356  a.u.
     unit-cell volume          =     445.1737 (a.u.)^3
     number of atoms/cell      =            2
     number of atomic types    =            1
     number of electrons       =         6.00
     number of Kohn-Sham states=            7
     kinetic-energy cutoff     =      25.0000  Ry
     charge density cutoff     =     280.0000  Ry
     convergence threshold     =      1.0E-06
     mixing beta               =       0.1000
     number of iterations used =           10  TF        mixing
     Exchange-correlation      = SLA PW PBX PBC ( 1  4  3  4 0 0)

     celldm(1)=   7.635600  celldm(2)=   0.000000  celldm(3)=   0.000000
     celldm(4)=   0.000000  celldm(5)=   0.000000  celldm(6)=   0.000000

     crystal axes: (cart. coord. in units of alat)
               a(1) = (   1.000000   0.000000   0.000000 )  
               a(2) = (   0.000000   1.000000   0.000000 )  
               a(3) = (   0.000000   0.000000   1.000000 )  

     reciprocal axes: (cart. coord. in units 2 pi/alat)
               b(1) = (  1.000000  0.000000  0.000000 )  
               b(2) = (  0.000000  1.000000  0.000000 )  
               b(3) = (  0.000000  0.000000  1.000000 )  


     PseudoPot. # 1 for Al read from file:
     /opt/pp/Al.pbe-nl-kjpaw_psl.1.0.0.UPF
     MD5 check sum: 1b67f78b73fe58c7924490f171ce8a1e
     Pseudo is Projector augmented-wave + core cor, Zval =  3.0
     Generated using "atomic" code by A. Dal Corso v.6.3
     Shape of augmentation charge: PSQ
     Using radial grid of 1135 points,  4 beta functions with: 
                l(1) =   0
                l(2) =   0
                l(3) =   1
                l(4) =   1
     Q(r) pseudized with 0 coefficients 


     atomic species   valence    mass     pseudopotential
        Al             3.00    26.98200     Al( 1.00)

     No symmetry found



   Cartesian axes

     site n.     atom                  positions (alat units)
         1           Al  tau(   1) = (  -0.0000654   0.0000190   0.0001361  )
         2           Al  tau(   2) = (   0.5001592   0.4996200   0.5001406  )

     number of k points=    32  Marzari-Vanderbilt smearing, width (Ry)=  0.0200
                       cart. coord. in units 2pi/alat
        k(    1) = (   0.1250000   0.1250000   0.1250000), wk =   0.0625000
        k(    2) = (   0.1250000   0.1250000   0.3750000), wk =   0.0625000
        k(    3) = (   0.1250000   0.3750000   0.3750000), wk =   0.0625000
        k(    4) = (   0.3750000   0.3750000   0.3750000), wk =   0.0625000
        k(    5) = (  -0.1250000  -0.1250000   0.1250000), wk =   0.0625000
        k(    6) = (  -0.1250000   0.1250000  -0.1250000), wk =   0.0625000
        k(    7) = (   0.1250000  -0.1250000  -0.1250000), wk =   0.0625000
        k(    8) = (  -0.1250000  -0.1250000   0.3750000), wk =   0.0625000
        k(    9) = (  -0.1250000   0.1250000  -0.3750000), wk =   0.0625000
        k(   10) = (   0.1250000  -0.1250000  -0.3750000), wk =   0.0625000
        k(   11) = (   0.3750000  -0.1250000   0.1250000), wk =   0.0625000
        k(   12) = (  -0.3750000  -0.1250000  -0.1250000), wk =   0.0625000
        k(   13) = (   0.3750000   0.1250000  -0.1250000), wk =   0.0625000
        k(   14) = (  -0.3750000   0.1250000   0.1250000), wk =   0.0625000
        k(   15) = (  -0.1250000   0.3750000   0.1250000), wk =   0.0625000
        k(   16) = (  -0.1250000  -0.3750000  -0.1250000), wk =   0.0625000
        k(   17) = (   0.1250000   0.3750000  -0.1250000), wk =   0.0625000
        k(   18) = (   0.1250000  -0.3750000   0.1250000), wk =   0.0625000
        k(   19) = (  -0.1250000  -0.3750000   0.3750000), wk =   0.0625000
        k(   20) = (  -0.1250000   0.3750000  -0.3750000), wk =   0.0625000
        k(   21) = (   0.1250000  -0.3750000  -0.3750000), wk =   0.0625000
        k(   22) = (   0.3750000   0.1250000  -0.3750000), wk =   0.0625000
        k(   23) = (  -0.3750000  -0.1250000  -0.3750000), wk =   0.0625000
        k(   24) = (   0.3750000  -0.1250000   0.3750000), wk =   0.0625000
        k(   25) = (  -0.3750000   0.1250000   0.3750000), wk =   0.0625000
        k(   26) = (   0.3750000  -0.3750000   0.1250000), wk =   0.0625000
        k(   27) = (  -0.3750000  -0.3750000  -0.1250000), wk =   0.0625000
        k(   28) = (   0.3750000   0.3750000  -0.1250000), wk =   0.0625000
        k(   29) = (  -0.3750000   0.3750000   0.1250000), wk =   0.0625000
        k(   30) = (  -0.3750000  -0.3750000   0.3750000), wk =   0.0625000
        k(   31) = (  -0.3750000   0.3750000  -0.3750000), wk =   0.0625000
        k(   32) = (   0.3750000  -0.3750000  -0.3750000), wk =   0.0625000

     Dense  grid:    35273 G-vectors     FFT dimensions: (  45,  45,  45)

     Smooth grid:     7497 G-vectors     FFT dimensions: (  25,  25,  25)

     Estimated max dynamical RAM per process >      13.90 MB

     Estimated total dynamical RAM >      55.59 MB

     Initial potential from superposition of free atoms

     starting charge    5.99542, renormalised to    6.00000
     Starting wfcs are    8 randomized atomic wfcs
     Checking if some PAW data can be deallocated... 

     total cpu time spent up to now is        0.6 secs

     Self-consistent Calculation

     iteration #  1     ecut=    25.00 Ry     beta= 0.10
     Davidson diagonalization with overlap
     ethr =  1.00E-02,  avg # of iterations =  3.0

     Threshold (ethr) on eigenvalues was too large:
     Diagonalizing with lowered threshold

     Davidson diagonalization with overlap
     ethr =  1.34E-04,  avg # of iterations =  2.4

     total cpu time spent up to now is        1.0 secs

     total energy              =     -78.84820813 Ry
     Harris-Foulkes estimate   =     -78.84850034 Ry
     estimated scf accuracy    <       0.00803849 Ry

     iteration #  2     ecut=    25.00 Ry     beta= 0.10
     Davidson diagonalization with overlap
     ethr =  1.34E-04,  avg # of iterations =  1.0

     total cpu time spent up to now is        1.2 secs

     total energy              =     -78.84602977 Ry
     Harris-Foulkes estimate   =     -78.84823979 Ry
     estimated scf accuracy    <       0.00702650 Ry

     iteration #  3     ecut=    25.00 Ry     beta= 0.10
     Davidson diagonalization with overlap
     ethr =  1.17E-04,  avg # of iterations =  1.0

     total cpu time spent up to now is        1.3 secs

     total energy              =     -78.84638517 Ry
     Harris-Foulkes estimate   =     -78.84641242 Ry
     estimated scf accuracy    <       0.00003715 Ry

     iteration #  4     ecut=    25.00 Ry     beta= 0.10
     Davidson diagonalization with overlap
     ethr =  6.19E-07,  avg # of iterations =  3.5

     total cpu time spent up to now is        1.6 secs

     total energy              =     -78.84635795 Ry
     Harris-Foulkes estimate   =     -78.84643453 Ry
     estimated scf accuracy    <       0.00003215 Ry

     iteration #  5     ecut=    25.00 Ry     beta= 0.10
     Davidson diagonalization with overlap
     ethr =  5.36E-07,  avg # of iterations =  1.6

     total cpu time spent up to now is        1.8 secs

     total energy              =     -78.84631714 Ry
     Harris-Foulkes estimate   =     -78.84636204 Ry
     estimated scf accuracy    <       0.00003312 Ry

     iteration #  6     ecut=    25.00 Ry     beta= 0.10
     Davidson diagonalization with overlap
     ethr =  5.36E-07,  avg # of iterations =  2.0

     total cpu time spent up to now is        2.0 secs

     total energy              =     -78.84632235 Ry
     Harris-Foulkes estimate   =     -78.84632152 Ry
     estimated scf accuracy    <       0.00000130 Ry

     iteration #  7     ecut=    25.00 Ry     beta= 0.10
     Davidson diagonalization with overlap
     ethr =  2.16E-08,  avg # of iterations =  1.4

     total cpu time spent up to now is        2.1 secs

     total energy              =     -78.84632034 Ry
     Harris-Foulkes estimate   =     -78.84632241 Ry
     estimated scf accuracy    <       0.00000155 Ry

     iteration #  8     ecut=    25.00 Ry     beta= 0.10
     Davidson diagonalization with overlap
     ethr =  2.16E-08,  avg # of iterations =  1.7

     total cpu time spent up to now is        2.3 secs

     End of self-consistent calculation

          k = 0.1250 0.1250 0.1250 (   943 PWs)   bands (ev):

    -4.4254   1.0101   2.7014   2.7014   5.4537   7.3973   7.7395

          k = 0.1250 0.1250 0.3750 (   929 PWs)   bands (ev):

    -3.3349  -1.2261   2.9073   3.7511   4.8834   5.8034   6.8326

          k = 0.1250 0.3750 0.3750 (   943 PWs)   bands (ev):

    -2.2805  -0.7132   0.7118   2.2462   4.4315   5.9930   7.0194

          k = 0.3750 0.3750 0.3750 (   943 PWs)   bands (ev):

    -1.2687  -0.1189   1.7880   1.7880   2.5356   3.9212   3.9212

          k =-0.1250-0.1250 0.1250 (   943 PWs)   bands (ev):

    -4.4254   1.0101   2.7014   2.7014   5.4537   7.3973   7.7395

          k =-0.1250 0.1250-0.1250 (   943 PWs)   bands (ev):

    -4.4254   1.0101   2.7014   2.7014   5.4537   7.3973   7.7395

          k = 0.1250-0.1250-0.1250 (   943 PWs)   bands (ev):

    -4.4254   1.0101   2.7014   2.7014   5.4537   7.3973   7.7395

          k =-0.1250-0.1250 0.3750 (   929 PWs)   bands (ev):

    -3.3349  -1.2261   2.9074   3.7511   4.8834   5.8034   6.8326

          k =-0.1250 0.1250-0.3750 (   929 PWs)   bands (ev):

    -3.3349  -1.2261   2.9073   3.7511   4.8834   5.8034   6.8325

          k = 0.1250-0.1250-0.3750 (   929 PWs)   bands (ev):

    -3.3349  -1.2261   2.9073   3.7512   4.8834   5.8034   6.8325

          k = 0.3750-0.1250 0.1250 (   929 PWs)   bands (ev):

    -3.3349  -1.2261   2.9073   3.7512   4.8834   5.8034   6.8325

          k =-0.3750-0.1250-0.1250 (   929 PWs)   bands (ev):

    -3.3349  -1.2261   2.9073   3.7511   4.8834   5.8034   6.8326

          k = 0.3750 0.1250-0.1250 (   929 PWs)   bands (ev):

    -3.3349  -1.2261   2.9073   3.7512   4.8834   5.8034   6.8325

          k =-0.3750 0.1250 0.1250 (   929 PWs)   bands (ev):

    -3.3349  -1.2261   2.9074   3.7511   4.8834   5.8034   6.8326

          k =-0.1250 0.3750 0.1250 (   929 PWs)   bands (ev):

    -3.3349  -1.2261   2.9073   3.7511   4.8834   5.8034   6.8325

          k =-0.1250-0.3750-0.1250 (   929 PWs)   bands (ev):

    -3.3349  -1.2261   2.9073   3.7511   4.8834   5.8034   6.8326

          k = 0.1250 0.3750-0.1250 (   929 PWs)   bands (ev):

    -3.3349  -1.2261   2.9073   3.7511   4.8834   5.8034   6.8325

          k = 0.1250-0.3750 0.1250 (   929 PWs)   bands (ev):

    -3.3349  -1.2261   2.9074   3.7511   4.8834   5.8034   6.8325

          k =-0.1250-0.3750 0.3750 (   943 PWs)   bands (ev):

    -2.2805  -0.7132   0.7118   2.2462   4.4315   5.9930   7.0194

          k =-0.1250 0.3750-0.3750 (   943 PWs)   bands (ev):

    -2.2805  -0.7132   0.7118   2.2462   4.4315   5.9930   7.0194

          k = 0.1250-0.3750-0.3750 (   943 PWs)   bands (ev):

    -2.2805  -0.7132   0.7118   2.2462   4.4316   5.9930   7.0194

          k = 0.3750 0.1250-0.3750 (   943 PWs)   bands (ev):

    -2.2805  -0.7132   0.7118   2.2462   4.4316   5.9930   7.0194

          k =-0.3750-0.1250-0.3750 (   943 PWs)   bands (ev):

    -2.2805  -0.7132   0.7118   2.2462   4.4315   5.9930   7.0194

          k = 0.3750-0.1250 0.3750 (   943 PWs)   bands (ev):

    -2.2805  -0.7132   0.7118   2.2462   4.4316   5.9930   7.0194

          k =-0.3750 0.1250 0.3750 (   943 PWs)   bands (ev):

    -2.2805  -0.7132   0.7118   2.2462   4.4316   5.9930   7.0194

          k = 0.3750-0.3750 0.1250 (   943 PWs)   bands (ev):

    -2.2805  -0.7132   0.7118   2.2462   4.4316   5.9931   7.0194

          k =-0.3750-0.3750-0.1250 (   943 PWs)   bands (ev):

    -2.2805  -0.7132   0.7118   2.2462   4.4315   5.9931   7.0194

          k = 0.3750 0.3750-0.1250 (   943 PWs)   bands (ev):

    -2.2805  -0.7132   0.7118   2.2462   4.4316   5.9931   7.0194

          k =-0.3750 0.3750 0.1250 (   943 PWs)   bands (ev):

    -2.2805  -0.7132   0.7118   2.2462   4.4315   5.9931   7.0194

          k =-0.3750-0.3750 0.3750 (   943 PWs)   bands (ev):

    -1.2687  -0.1189   1.7880   1.7881   2.5356   3.9212   3.9213

          k =-0.3750 0.3750-0.3750 (   943 PWs)   bands (ev):

    -1.2687  -0.1189   1.7880   1.7881   2.5356   3.9212   3.9213

          k = 0.3750-0.3750-0.3750 (   943 PWs)   bands (ev):

    -1.2687  -0.1189   1.7880   1.7881   2.5356   3.9212   3.9213

     the Fermi energy is     2.4395 ev

!    total energy              =     -78.84632025 Ry
     Harris-Foulkes estimate   =     -78.84632053 Ry
     estimated scf accuracy    <       0.00000028 Ry

     total all-electron energy =      -971.131881 Ry

     The total energy is the sum of the following terms:

     one-electron contribution =       3.57791637 Ry
     hartree contribution      =       0.10232169 Ry
     xc contribution           =      -4.62884084 Ry
     ewald contribution        =      -8.57905000 Ry
     one-center paw contrib.   =     -69.31794044 Ry
     smearing contrib. (-TS)   =      -0.00072702 Ry

     convergence has been achieved in   8 iterations

     Forces acting on atoms (cartesian axes, Ry/au):

     atom    1 type  1   force =    -0.00002475    0.00001116   -0.00000102
     atom    2 type  1   force =     0.00002475   -0.00001116    0.00000102

     Total force =     0.000038     Total SCF correction =     0.000100
     SCF correction compared to forces is large: reduce conv_thr to get better values


     Computing stress (Cartesian axis) and pressure

          total   stress  (Ry/bohr**3)                   (kbar)     P=  -93.05
  -0.00063252   0.00000000  -0.00000000        -93.05      0.00     -0.00
   0.00000000  -0.00063252  -0.00000000          0.00    -93.05     -0.00
  -0.00000000  -0.00000000  -0.00063252         -0.00     -0.00    -93.05


     Writing output data file fe_scf_fcc_2.save/

     init_run     :      0.18s CPU      0.20s WALL (       1 calls)
     electrons    :      1.56s CPU      1.66s WALL (       1 calls)
     forces       :      0.06s CPU      0.06s WALL (       1 calls)
     stress       :      0.13s CPU      0.13s WALL (       1 calls)

     Called by init_run:
     wfcinit      :      0.05s CPU      0.05s WALL (       1 calls)
     potinit      :      0.04s CPU      0.05s WALL (       1 calls)
     hinit0       :      0.07s CPU      0.07s WALL (       1 calls)

     Called by electrons:
     c_bands      :      0.94s CPU      1.00s WALL (       9 calls)
     sum_band     :      0.21s CPU      0.23s WALL (       9 calls)
     v_of_rho     :      0.13s CPU      0.14s WALL (       9 calls)
     newd         :      0.07s CPU      0.07s WALL (       9 calls)
     PAW_pot      :      0.23s CPU      0.24s WALL (       9 calls)
     mix_rho      :      0.01s CPU      0.01s WALL (       9 calls)

     Called by c_bands:
     init_us_2    :      0.03s CPU      0.03s WALL (     672 calls)
     cegterg      :      0.90s CPU      0.96s WALL (     288 calls)

     Called by sum_band:
     sum_band:bec :      0.00s CPU      0.00s WALL (     288 calls)
     addusdens    :      0.05s CPU      0.05s WALL (       9 calls)

     Called by *egterg:
     h_psi        :      0.70s CPU      0.75s WALL (     884 calls)
     s_psi        :      0.03s CPU      0.03s WALL (     884 calls)
     g_psi        :      0.00s CPU      0.00s WALL (     564 calls)
     cdiaghg      :      0.06s CPU      0.07s WALL (     820 calls)

     Called by h_psi:
     h_psi:pot    :      0.70s CPU      0.75s WALL (     884 calls)
     h_psi:calbec :      0.05s CPU      0.06s WALL (     884 calls)
     vloc_psi     :      0.62s CPU      0.66s WALL (     884 calls)
     add_vuspsi   :      0.03s CPU      0.03s WALL (     884 calls)

     General routines
     calbec       :      0.08s CPU      0.09s WALL (    1332 calls)
     fft          :      0.09s CPU      0.10s WALL (     141 calls)
     ffts         :      0.00s CPU      0.00s WALL (      18 calls)
     fftw         :      0.67s CPU      0.72s WALL (   12362 calls)
     interpolate  :      0.01s CPU      0.01s WALL (       9 calls)

     Parallel routines
     fft_scatt_xy :      0.08s CPU      0.09s WALL (   12521 calls)
     fft_scatt_yz :      0.39s CPU      0.43s WALL (   12521 calls)

     PWSCF        :      2.36s CPU      2.52s WALL


   This run was terminated on:  15:55:59  24Feb2020            

=------------------------------------------------------------------------------=
   JOB DONE.
=------------------------------------------------------------------------------=
