
     Program PWSCF v.6.3 starts on 30Oct2019 at  0:32:48 

     This program is part of the open-source Quantum ESPRESSO suite
     for quantum simulation of materials; please cite
         "P. Giannozzi et al., J. Phys.:Condens. Matter 21 395502 (2009);
         "P. Giannozzi et al., J. Phys.:Condens. Matter 29 465901 (2017);
          URL http://www.quantum-espresso.org", 
     in publications or presentations arising from this work. More details at
     http://www.quantum-espresso.org/quote

     Parallel version (MPI), running on     1 processors

     MPI processes distributed on     1 nodes
     Reading input from /cloud/Code/python/py_pwscf_converge/src/example2/wd/runpwscf/file_10223.in
Warning: card &IONS ignored
Warning: card ION_DYNAMICS = 'BFGS', ignored
Warning: card / ignored
Warning: card &CELL ignored
Warning: card CELL_DYNAMICS = 'BFGS', ignored
Warning: card CELL_FACTOR = 2.0, ignored
Warning: card PRESS = 0.0, ignored
Warning: card / ignored

     Current dimensions of program PWSCF are:
     Max number of different atomic species (ntypx) = 10
     Max number of k-points (npk) =  40000
     Max angular momentum in pseudopotentials (lmaxx) =  3
               file Al.pbe-nl-kjpaw_psl.1.0.0.UPF: wavefunction(s)  3S 3P renormalized

     Subspace diagonalization in iterative solution of the eigenvalue problem:
     a serial algorithm will be used


     G-vector sticks info
     --------------------
     sticks:   dense  smooth     PW     G-vecs:    dense   smooth      PW
     Sum         341     341    161                 4697     4697    1503



     bravais-lattice index     =            0
     lattice parameter (alat)  =       4.0400  a.u.
     unit-cell volume          =      65.9393 (a.u.)^3
     number of atoms/cell      =            2
     number of atomic types    =            1
     number of electrons       =         6.00
     number of Kohn-Sham states=            7
     kinetic-energy cutoff     =     100.0000  Ry
     charge density cutoff     =     260.0000  Ry
     convergence threshold     =      1.0E-06
     mixing beta               =       0.1000
     number of iterations used =           10  TF        mixing
     Exchange-correlation      = SLA PW PBX PBC ( 1  4  3  4 0 0)

     celldm(1)=   4.040000  celldm(2)=   0.000000  celldm(3)=   0.000000
     celldm(4)=   0.000000  celldm(5)=   0.000000  celldm(6)=   0.000000

     crystal axes: (cart. coord. in units of alat)
               a(1) = (   1.000000   0.000000   0.000000 )  
               a(2) = (   0.000000   1.000000   0.000000 )  
               a(3) = (   0.000000   0.000000   1.000000 )  

     reciprocal axes: (cart. coord. in units 2 pi/alat)
               b(1) = (  1.000000  0.000000  0.000000 )  
               b(2) = (  0.000000  1.000000  0.000000 )  
               b(3) = (  0.000000  0.000000  1.000000 )  


     PseudoPot. # 1 for Al read from file:
     /opt/pp/Al.pbe-nl-kjpaw_psl.1.0.0.UPF
     MD5 check sum: 1b67f78b73fe58c7924490f171ce8a1e
     Pseudo is Projector augmented-wave + core cor, Zval =  3.0
     Generated using "atomic" code by A. Dal Corso v.6.3
     Shape of augmentation charge: PSQ
     Using radial grid of 1135 points,  4 beta functions with: 
                l(1) =   0
                l(2) =   0
                l(3) =   1
                l(4) =   1
     Q(r) pseudized with 0 coefficients 


     atomic species   valence    mass     pseudopotential
        Al             3.00    26.98200     Al( 1.00)

     No symmetry found



   Cartesian axes

     site n.     atom                  positions (alat units)
         1           Al  tau(   1) = (  -0.0001235   0.0000359   0.0002572  )
         2           Al  tau(   2) = (   0.5003009   0.4992819   0.5002658  )

     number of k points=    32  Marzari-Vanderbilt smearing, width (Ry)=  0.0200
                       cart. coord. in units 2pi/alat
        k(    1) = (   0.1250000   0.1250000   0.1250000), wk =   0.0625000
        k(    2) = (   0.1250000   0.1250000   0.3750000), wk =   0.0625000
        k(    3) = (   0.1250000   0.3750000   0.3750000), wk =   0.0625000
        k(    4) = (   0.3750000   0.3750000   0.3750000), wk =   0.0625000
        k(    5) = (  -0.1250000  -0.1250000   0.1250000), wk =   0.0625000
        k(    6) = (  -0.1250000   0.1250000  -0.1250000), wk =   0.0625000
        k(    7) = (   0.1250000  -0.1250000  -0.1250000), wk =   0.0625000
        k(    8) = (  -0.1250000  -0.1250000   0.3750000), wk =   0.0625000
        k(    9) = (  -0.1250000   0.1250000  -0.3750000), wk =   0.0625000
        k(   10) = (   0.1250000  -0.1250000  -0.3750000), wk =   0.0625000
        k(   11) = (   0.3750000  -0.1250000   0.1250000), wk =   0.0625000
        k(   12) = (  -0.3750000  -0.1250000  -0.1250000), wk =   0.0625000
        k(   13) = (   0.3750000   0.1250000  -0.1250000), wk =   0.0625000
        k(   14) = (  -0.3750000   0.1250000   0.1250000), wk =   0.0625000
        k(   15) = (  -0.1250000   0.3750000   0.1250000), wk =   0.0625000
        k(   16) = (  -0.1250000  -0.3750000  -0.1250000), wk =   0.0625000
        k(   17) = (   0.1250000   0.3750000  -0.1250000), wk =   0.0625000
        k(   18) = (   0.1250000  -0.3750000   0.1250000), wk =   0.0625000
        k(   19) = (  -0.1250000  -0.3750000   0.3750000), wk =   0.0625000
        k(   20) = (  -0.1250000   0.3750000  -0.3750000), wk =   0.0625000
        k(   21) = (   0.1250000  -0.3750000  -0.3750000), wk =   0.0625000
        k(   22) = (   0.3750000   0.1250000  -0.3750000), wk =   0.0625000
        k(   23) = (  -0.3750000  -0.1250000  -0.3750000), wk =   0.0625000
        k(   24) = (   0.3750000  -0.1250000   0.3750000), wk =   0.0625000
        k(   25) = (  -0.3750000   0.1250000   0.3750000), wk =   0.0625000
        k(   26) = (   0.3750000  -0.3750000   0.1250000), wk =   0.0625000
        k(   27) = (  -0.3750000  -0.3750000  -0.1250000), wk =   0.0625000
        k(   28) = (   0.3750000   0.3750000  -0.1250000), wk =   0.0625000
        k(   29) = (  -0.3750000   0.3750000   0.1250000), wk =   0.0625000
        k(   30) = (  -0.3750000  -0.3750000   0.3750000), wk =   0.0625000
        k(   31) = (  -0.3750000   0.3750000  -0.3750000), wk =   0.0625000
        k(   32) = (   0.3750000  -0.3750000  -0.3750000), wk =   0.0625000

     Dense  grid:     4697 G-vectors     FFT dimensions: (  24,  24,  24)

     Estimated max dynamical RAM per process >      11.21 MB

     Initial potential from superposition of free atoms

     starting charge    5.99542, renormalised to    6.00000
     Starting wfcs are    8 randomized atomic wfcs
     Checking if some PAW data can be deallocated... 

     total cpu time spent up to now is        3.5 secs

     Self-consistent Calculation

     iteration #  1     ecut=   100.00 Ry     beta= 0.10
     Davidson diagonalization with overlap
     ethr =  1.00E-02,  avg # of iterations =  4.2

     Threshold (ethr) on eigenvalues was too large:
     Diagonalizing with lowered threshold

     Davidson diagonalization with overlap
     ethr =  5.99E-04,  avg # of iterations =  1.0

     total cpu time spent up to now is        7.7 secs

     total energy              =     -76.87956437 Ry
     Harris-Foulkes estimate   =     -76.89119163 Ry
     estimated scf accuracy    <       0.03588770 Ry

     iteration #  2     ecut=   100.00 Ry     beta= 0.10
     Davidson diagonalization with overlap
     ethr =  5.98E-04,  avg # of iterations =  1.0

     total cpu time spent up to now is        9.5 secs

     total energy              =     -76.84887010 Ry
     Harris-Foulkes estimate   =     -76.87961169 Ry
     estimated scf accuracy    <       0.03070631 Ry

     iteration #  3     ecut=   100.00 Ry     beta= 0.10
     Davidson diagonalization with overlap
     ethr =  5.12E-04,  avg # of iterations =  1.9

     total cpu time spent up to now is       10.1 secs

     total energy              =     -76.85022546 Ry
     Harris-Foulkes estimate   =     -76.85187083 Ry
     estimated scf accuracy    <       0.00012765 Ry

     iteration #  4     ecut=   100.00 Ry     beta= 0.10
     Davidson diagonalization with overlap
     ethr =  2.13E-06,  avg # of iterations =  5.4

     total cpu time spent up to now is       11.1 secs

     total energy              =     -76.84839411 Ry
     Harris-Foulkes estimate   =     -76.85036730 Ry
     estimated scf accuracy    <       0.00008495 Ry

     iteration #  5     ecut=   100.00 Ry     beta= 0.10
     Davidson diagonalization with overlap
     ethr =  1.42E-06,  avg # of iterations =  2.2

     total cpu time spent up to now is       11.8 secs

     total energy              =     -76.84843337 Ry
     Harris-Foulkes estimate   =     -76.84843654 Ry
     estimated scf accuracy    <       0.00000298 Ry

     iteration #  6     ecut=   100.00 Ry     beta= 0.10
     Davidson diagonalization with overlap
     ethr =  4.97E-08,  avg # of iterations =  3.0

     total cpu time spent up to now is       12.5 secs

     End of self-consistent calculation

          k = 0.1250 0.1250 0.1250 (  1108 PWs)   bands (ev):

     8.6278  25.4943  25.4944  34.8439  40.9211  40.9211  44.6719

          k = 0.1250 0.1250 0.3750 (  1115 PWs)   bands (ev):

    12.3702  18.8180  28.7888  35.2801  35.8336  39.8856  43.3091

          k = 0.1250 0.3750 0.3750 (  1111 PWs)   bands (ev):

    15.8085  20.9375  23.3185  28.1873  35.7274  37.8066  49.3824

          k = 0.3750 0.3750 0.3750 (  1106 PWs)   bands (ev):

    18.9093  23.5356  23.5357  29.1292  29.1448  29.1463  46.3145

          k =-0.1250-0.1250 0.1250 (  1108 PWs)   bands (ev):

     8.6278  25.4943  25.4944  34.8439  40.9211  40.9211  44.6719

          k =-0.1250 0.1250-0.1250 (  1108 PWs)   bands (ev):

     8.6278  25.4944  25.4944  34.8439  40.9211  40.9211  44.6720

          k = 0.1250-0.1250-0.1250 (  1108 PWs)   bands (ev):

     8.6278  25.4943  25.4944  34.8439  40.9211  40.9211  44.6720

          k =-0.1250-0.1250 0.3750 (  1115 PWs)   bands (ev):

    12.3702  18.8180  28.7888  35.2801  35.8336  39.8856  43.3091

          k =-0.1250 0.1250-0.3750 (  1115 PWs)   bands (ev):

    12.3702  18.8180  28.7887  35.2804  35.8333  39.8856  43.3091

          k = 0.1250-0.1250-0.3750 (  1115 PWs)   bands (ev):

    12.3702  18.8180  28.7887  35.2804  35.8333  39.8856  43.3091

          k = 0.3750-0.1250 0.1250 (  1115 PWs)   bands (ev):

    12.3702  18.8180  28.7888  35.2803  35.8334  39.8856  43.3091

          k =-0.3750-0.1250-0.1250 (  1115 PWs)   bands (ev):

    12.3702  18.8180  28.7887  35.2803  35.8334  39.8856  43.3091

          k = 0.3750 0.1250-0.1250 (  1115 PWs)   bands (ev):

    12.3702  18.8180  28.7887  35.2803  35.8334  39.8856  43.3091

          k =-0.3750 0.1250 0.1250 (  1115 PWs)   bands (ev):

    12.3702  18.8180  28.7887  35.2803  35.8335  39.8856  43.3091

          k =-0.1250 0.3750 0.1250 (  1115 PWs)   bands (ev):

    12.3702  18.8180  28.7887  35.2804  35.8333  39.8856  43.3091

          k =-0.1250-0.3750-0.1250 (  1115 PWs)   bands (ev):

    12.3702  18.8180  28.7887  35.2804  35.8333  39.8856  43.3091

          k = 0.1250 0.3750-0.1250 (  1115 PWs)   bands (ev):

    12.3702  18.8180  28.7887  35.2804  35.8333  39.8856  43.3091

          k = 0.1250-0.3750 0.1250 (  1115 PWs)   bands (ev):

    12.3702  18.8180  28.7887  35.2804  35.8333  39.8856  43.3091

          k =-0.1250-0.3750 0.3750 (  1111 PWs)   bands (ev):

    15.8085  20.9375  23.3185  28.1873  35.7274  37.8066  49.3824

          k =-0.1250 0.3750-0.3750 (  1111 PWs)   bands (ev):

    15.8085  20.9375  23.3185  28.1873  35.7274  37.8066  49.3824

          k = 0.1250-0.3750-0.3750 (  1111 PWs)   bands (ev):

    15.8085  20.9375  23.3185  28.1873  35.7274  37.8066  49.3824

          k = 0.3750 0.1250-0.3750 (  1111 PWs)   bands (ev):

    15.8085  20.9375  23.3185  28.1873  35.7274  37.8066  49.3823

          k =-0.3750-0.1250-0.3750 (  1111 PWs)   bands (ev):

    15.8085  20.9375  23.3185  28.1873  35.7274  37.8066  49.3823

          k = 0.3750-0.1250 0.3750 (  1111 PWs)   bands (ev):

    15.8085  20.9375  23.3185  28.1873  35.7274  37.8066  49.3824

          k =-0.3750 0.1250 0.3750 (  1111 PWs)   bands (ev):

    15.8085  20.9375  23.3185  28.1873  35.7274  37.8066  49.3824

          k = 0.3750-0.3750 0.1250 (  1111 PWs)   bands (ev):

    15.8085  20.9375  23.3185  28.1873  35.7274  37.8066  49.3824

          k =-0.3750-0.3750-0.1250 (  1111 PWs)   bands (ev):

    15.8085  20.9375  23.3185  28.1873  35.7274  37.8066  49.3824

          k = 0.3750 0.3750-0.1250 (  1111 PWs)   bands (ev):

    15.8085  20.9375  23.3185  28.1873  35.7274  37.8066  49.3824

          k =-0.3750 0.3750 0.1250 (  1111 PWs)   bands (ev):

    15.8085  20.9375  23.3185  28.1873  35.7274  37.8066  49.3824

          k =-0.3750-0.3750 0.3750 (  1106 PWs)   bands (ev):

    18.9093  23.5356  23.5357  29.1292  29.1448  29.1463  46.3145

          k =-0.3750 0.3750-0.3750 (  1106 PWs)   bands (ev):

    18.9093  23.5356  23.5356  29.1301  29.1448  29.1455  46.3145

          k = 0.3750-0.3750-0.3750 (  1106 PWs)   bands (ev):

    18.9094  23.5356  23.5356  29.1301  29.1448  29.1455  46.3145

     the Fermi energy is    28.4317 ev

!    total energy              =     -76.84841646 Ry
     Harris-Foulkes estimate   =     -76.84843606 Ry
     estimated scf accuracy    <       0.00000064 Ry

     total all-electron energy =      -969.133978 Ry

     The total energy is the sum of the following terms:

     one-electron contribution =      16.33620852 Ry
     hartree contribution      =       0.09270089 Ry
     xc contribution           =      -7.03879170 Ry
     ewald contribution        =     -16.21439947 Ry
     one-center paw contrib.   =     -70.02503108 Ry
     smearing contrib. (-TS)   =       0.00089637 Ry

     convergence has been achieved in   6 iterations

     Forces acting on atoms (cartesian axes, Ry/au):

     atom    1 type  1   force =     0.00251307   -0.00452067    0.00006086
     atom    2 type  1   force =    -0.00251307    0.00452067   -0.00006086

     Total force =     0.007315     Total SCF correction =     0.000193


     Computing stress (Cartesian axis) and pressure

          total   stress  (Ry/bohr**3)                   (kbar)     P=10848.38
   0.07374582  -0.00000021   0.00000001      10848.38     -0.03      0.00
  -0.00000021   0.07374552   0.00000000         -0.03  10848.34      0.00
   0.00000001   0.00000000   0.07374596          0.00      0.00  10848.40


     Writing output data file fe_scf_fcc_2.save/

     init_run     :      2.03s CPU      2.10s WALL (       1 calls)
     electrons    :      8.88s CPU      9.06s WALL (       1 calls)
     forces       :      0.06s CPU      0.06s WALL (       1 calls)
     stress       :      0.23s CPU      0.23s WALL (       1 calls)

     Called by init_run:
     wfcinit      :      0.67s CPU      0.71s WALL (       1 calls)
     potinit      :      0.41s CPU      0.43s WALL (       1 calls)
     hinit0       :      0.92s CPU      0.93s WALL (       1 calls)

     Called by electrons:
     c_bands      :      6.42s CPU      6.58s WALL (       7 calls)
     sum_band     :      1.17s CPU      1.20s WALL (       7 calls)
     v_of_rho     :      0.17s CPU      0.17s WALL (       7 calls)
     newd         :      0.06s CPU      0.06s WALL (       7 calls)
     PAW_pot      :      1.46s CPU      1.47s WALL (       7 calls)
     mix_rho      :      0.00s CPU      0.01s WALL (       7 calls)

     Called by c_bands:
     init_us_2    :      0.31s CPU      0.31s WALL (     544 calls)
     cegterg      :      6.11s CPU      6.21s WALL (     224 calls)

     Called by sum_band:
     sum_band:bec :      0.00s CPU      0.00s WALL (     224 calls)
     addusdens    :      0.05s CPU      0.06s WALL (       7 calls)

     Called by *egterg:
     h_psi        :      5.75s CPU      5.86s WALL (     853 calls)
     s_psi        :      0.19s CPU      0.14s WALL (     853 calls)
     g_psi        :      0.02s CPU      0.04s WALL (     597 calls)
     cdiaghg      :      0.16s CPU      0.18s WALL (     789 calls)

     Called by h_psi:
     h_psi:pot    :      5.70s CPU      5.84s WALL (     853 calls)
     h_psi:calbec :      0.18s CPU      0.16s WALL (     853 calls)
     vloc_psi     :      5.33s CPU      5.52s WALL (     853 calls)
     add_vuspsi   :      0.18s CPU      0.15s WALL (     853 calls)

     General routines
     calbec       :      0.23s CPU      0.21s WALL (    1237 calls)
     fft          :      0.10s CPU      0.12s WALL (     104 calls)
     ffts         :      0.01s CPU      0.01s WALL (       7 calls)
     fftw         :      5.80s CPU      6.02s WALL (   10628 calls)

     Parallel routines

     PWSCF        :    12.52s CPU        12.83s WALL


   This run was terminated on:   0:33: 1  30Oct2019            

=------------------------------------------------------------------------------=
   JOB DONE.
=------------------------------------------------------------------------------=
