
     Program PWSCF v.6.3 starts on 30Oct2019 at  0:31:57 

     This program is part of the open-source Quantum ESPRESSO suite
     for quantum simulation of materials; please cite
         "P. Giannozzi et al., J. Phys.:Condens. Matter 21 395502 (2009);
         "P. Giannozzi et al., J. Phys.:Condens. Matter 29 465901 (2017);
          URL http://www.quantum-espresso.org", 
     in publications or presentations arising from this work. More details at
     http://www.quantum-espresso.org/quote

     Parallel version (MPI), running on     1 processors

     MPI processes distributed on     1 nodes
     Reading input from /cloud/Code/python/py_pwscf_converge/src/example2/wd/runpwscf/file_10211.in
Warning: card &IONS ignored
Warning: card ION_DYNAMICS = 'BFGS', ignored
Warning: card / ignored
Warning: card &CELL ignored
Warning: card CELL_DYNAMICS = 'BFGS', ignored
Warning: card CELL_FACTOR = 2.0, ignored
Warning: card PRESS = 0.0, ignored
Warning: card / ignored

     Current dimensions of program PWSCF are:
     Max number of different atomic species (ntypx) = 10
     Max number of k-points (npk) =  40000
     Max angular momentum in pseudopotentials (lmaxx) =  3
               file Al.pbe-nl-kjpaw_psl.1.0.0.UPF: wavefunction(s)  3S 3P renormalized

     Subspace diagonalization in iterative solution of the eigenvalue problem:
     a serial algorithm will be used


     G-vector sticks info
     --------------------
     sticks:   dense  smooth     PW     G-vecs:    dense   smooth      PW
     Sum         341     213     69                 4697     2301     461



     bravais-lattice index     =            0
     lattice parameter (alat)  =       4.0400  a.u.
     unit-cell volume          =      65.9393 (a.u.)^3
     number of atoms/cell      =            2
     number of atomic types    =            1
     number of electrons       =         6.00
     number of Kohn-Sham states=            7
     kinetic-energy cutoff     =      40.0000  Ry
     charge density cutoff     =     260.0000  Ry
     convergence threshold     =      1.0E-06
     mixing beta               =       0.1000
     number of iterations used =           10  TF        mixing
     Exchange-correlation      = SLA PW PBX PBC ( 1  4  3  4 0 0)

     celldm(1)=   4.040000  celldm(2)=   0.000000  celldm(3)=   0.000000
     celldm(4)=   0.000000  celldm(5)=   0.000000  celldm(6)=   0.000000

     crystal axes: (cart. coord. in units of alat)
               a(1) = (   1.000000   0.000000   0.000000 )  
               a(2) = (   0.000000   1.000000   0.000000 )  
               a(3) = (   0.000000   0.000000   1.000000 )  

     reciprocal axes: (cart. coord. in units 2 pi/alat)
               b(1) = (  1.000000  0.000000  0.000000 )  
               b(2) = (  0.000000  1.000000  0.000000 )  
               b(3) = (  0.000000  0.000000  1.000000 )  


     PseudoPot. # 1 for Al read from file:
     /opt/pp/Al.pbe-nl-kjpaw_psl.1.0.0.UPF
     MD5 check sum: 1b67f78b73fe58c7924490f171ce8a1e
     Pseudo is Projector augmented-wave + core cor, Zval =  3.0
     Generated using "atomic" code by A. Dal Corso v.6.3
     Shape of augmentation charge: PSQ
     Using radial grid of 1135 points,  4 beta functions with: 
                l(1) =   0
                l(2) =   0
                l(3) =   1
                l(4) =   1
     Q(r) pseudized with 0 coefficients 


     atomic species   valence    mass     pseudopotential
        Al             3.00    26.98200     Al( 1.00)

     No symmetry found



   Cartesian axes

     site n.     atom                  positions (alat units)
         1           Al  tau(   1) = (  -0.0001235   0.0000359   0.0002572  )
         2           Al  tau(   2) = (   0.5003009   0.4992819   0.5002658  )

     number of k points=    32  Marzari-Vanderbilt smearing, width (Ry)=  0.0200
                       cart. coord. in units 2pi/alat
        k(    1) = (   0.1250000   0.1250000   0.1250000), wk =   0.0625000
        k(    2) = (   0.1250000   0.1250000   0.3750000), wk =   0.0625000
        k(    3) = (   0.1250000   0.3750000   0.3750000), wk =   0.0625000
        k(    4) = (   0.3750000   0.3750000   0.3750000), wk =   0.0625000
        k(    5) = (  -0.1250000  -0.1250000   0.1250000), wk =   0.0625000
        k(    6) = (  -0.1250000   0.1250000  -0.1250000), wk =   0.0625000
        k(    7) = (   0.1250000  -0.1250000  -0.1250000), wk =   0.0625000
        k(    8) = (  -0.1250000  -0.1250000   0.3750000), wk =   0.0625000
        k(    9) = (  -0.1250000   0.1250000  -0.3750000), wk =   0.0625000
        k(   10) = (   0.1250000  -0.1250000  -0.3750000), wk =   0.0625000
        k(   11) = (   0.3750000  -0.1250000   0.1250000), wk =   0.0625000
        k(   12) = (  -0.3750000  -0.1250000  -0.1250000), wk =   0.0625000
        k(   13) = (   0.3750000   0.1250000  -0.1250000), wk =   0.0625000
        k(   14) = (  -0.3750000   0.1250000   0.1250000), wk =   0.0625000
        k(   15) = (  -0.1250000   0.3750000   0.1250000), wk =   0.0625000
        k(   16) = (  -0.1250000  -0.3750000  -0.1250000), wk =   0.0625000
        k(   17) = (   0.1250000   0.3750000  -0.1250000), wk =   0.0625000
        k(   18) = (   0.1250000  -0.3750000   0.1250000), wk =   0.0625000
        k(   19) = (  -0.1250000  -0.3750000   0.3750000), wk =   0.0625000
        k(   20) = (  -0.1250000   0.3750000  -0.3750000), wk =   0.0625000
        k(   21) = (   0.1250000  -0.3750000  -0.3750000), wk =   0.0625000
        k(   22) = (   0.3750000   0.1250000  -0.3750000), wk =   0.0625000
        k(   23) = (  -0.3750000  -0.1250000  -0.3750000), wk =   0.0625000
        k(   24) = (   0.3750000  -0.1250000   0.3750000), wk =   0.0625000
        k(   25) = (  -0.3750000   0.1250000   0.3750000), wk =   0.0625000
        k(   26) = (   0.3750000  -0.3750000   0.1250000), wk =   0.0625000
        k(   27) = (  -0.3750000  -0.3750000  -0.1250000), wk =   0.0625000
        k(   28) = (   0.3750000   0.3750000  -0.1250000), wk =   0.0625000
        k(   29) = (  -0.3750000   0.3750000   0.1250000), wk =   0.0625000
        k(   30) = (  -0.3750000  -0.3750000   0.3750000), wk =   0.0625000
        k(   31) = (  -0.3750000   0.3750000  -0.3750000), wk =   0.0625000
        k(   32) = (   0.3750000  -0.3750000  -0.3750000), wk =   0.0625000

     Dense  grid:     4697 G-vectors     FFT dimensions: (  24,  24,  24)

     Smooth grid:     2301 G-vectors     FFT dimensions: (  18,  18,  18)

     Estimated max dynamical RAM per process >       8.06 MB

     Initial potential from superposition of free atoms

     starting charge    5.99542, renormalised to    6.00000
     Starting wfcs are    8 randomized atomic wfcs
     Checking if some PAW data can be deallocated... 

     total cpu time spent up to now is        0.9 secs

     Self-consistent Calculation

     iteration #  1     ecut=    40.00 Ry     beta= 0.10
     Davidson diagonalization with overlap
     ethr =  1.00E-02,  avg # of iterations =  3.9

     Threshold (ethr) on eigenvalues was too large:
     Diagonalizing with lowered threshold

     Davidson diagonalization with overlap
     ethr =  5.97E-04,  avg # of iterations =  1.0

     total cpu time spent up to now is        1.5 secs

     total energy              =     -76.87927799 Ry
     Harris-Foulkes estimate   =     -76.89089393 Ry
     estimated scf accuracy    <       0.03589666 Ry

     iteration #  2     ecut=    40.00 Ry     beta= 0.10
     Davidson diagonalization with overlap
     ethr =  5.98E-04,  avg # of iterations =  1.0

     total cpu time spent up to now is        1.8 secs

     total energy              =     -76.84863525 Ry
     Harris-Foulkes estimate   =     -76.87932140 Ry
     estimated scf accuracy    <       0.03071658 Ry

     iteration #  3     ecut=    40.00 Ry     beta= 0.10
     Davidson diagonalization with overlap
     ethr =  5.12E-04,  avg # of iterations =  1.9

     total cpu time spent up to now is        2.1 secs

     total energy              =     -76.84996306 Ry
     Harris-Foulkes estimate   =     -76.85165640 Ry
     estimated scf accuracy    <       0.00012958 Ry

     iteration #  4     ecut=    40.00 Ry     beta= 0.10
     Davidson diagonalization with overlap
     ethr =  2.16E-06,  avg # of iterations =  5.2

     total cpu time spent up to now is        2.5 secs

     total energy              =     -76.84813208 Ry
     Harris-Foulkes estimate   =     -76.85010037 Ry
     estimated scf accuracy    <       0.00008646 Ry

     iteration #  5     ecut=    40.00 Ry     beta= 0.10
     Davidson diagonalization with overlap
     ethr =  1.44E-06,  avg # of iterations =  2.1

     total cpu time spent up to now is        2.8 secs

     total energy              =     -76.84817539 Ry
     Harris-Foulkes estimate   =     -76.84817509 Ry
     estimated scf accuracy    <       0.00000284 Ry

     iteration #  6     ecut=    40.00 Ry     beta= 0.10
     Davidson diagonalization with overlap
     ethr =  4.74E-08,  avg # of iterations =  3.0

     total cpu time spent up to now is        3.2 secs

     End of self-consistent calculation

          k = 0.1250 0.1250 0.1250 (   275 PWs)   bands (ev):

     8.6283  25.4951  25.4952  34.8449  40.9231  40.9231  44.6781

          k = 0.1250 0.1250 0.3750 (   280 PWs)   bands (ev):

    12.3705  18.8182  28.7901  35.2825  35.8351  39.8894  43.3113

          k = 0.1250 0.3750 0.3750 (   278 PWs)   bands (ev):

    15.8086  20.9375  23.3193  28.1883  35.7297  37.8093  49.3864

          k = 0.3750 0.3750 0.3750 (   289 PWs)   bands (ev):

    18.9095  23.5360  23.5360  29.1302  29.1456  29.1471  46.3150

          k =-0.1250-0.1250 0.1250 (   275 PWs)   bands (ev):

     8.6283  25.4951  25.4951  34.8449  40.9231  40.9231  44.6781

          k =-0.1250 0.1250-0.1250 (   275 PWs)   bands (ev):

     8.6283  25.4951  25.4951  34.8449  40.9230  40.9230  44.6782

          k = 0.1250-0.1250-0.1250 (   275 PWs)   bands (ev):

     8.6283  25.4951  25.4951  34.8449  40.9230  40.9230  44.6782

          k =-0.1250-0.1250 0.3750 (   280 PWs)   bands (ev):

    12.3704  18.8182  28.7901  35.2825  35.8351  39.8894  43.3113

          k =-0.1250 0.1250-0.3750 (   280 PWs)   bands (ev):

    12.3705  18.8182  28.7900  35.2827  35.8349  39.8894  43.3113

          k = 0.1250-0.1250-0.3750 (   280 PWs)   bands (ev):

    12.3705  18.8182  28.7900  35.2827  35.8349  39.8894  43.3113

          k = 0.3750-0.1250 0.1250 (   280 PWs)   bands (ev):

    12.3704  18.8182  28.7901  35.2826  35.8350  39.8894  43.3114

          k =-0.3750-0.1250-0.1250 (   280 PWs)   bands (ev):

    12.3704  18.8182  28.7901  35.2827  35.8349  39.8894  43.3113

          k = 0.3750 0.1250-0.1250 (   280 PWs)   bands (ev):

    12.3704  18.8182  28.7901  35.2827  35.8349  39.8894  43.3113

          k =-0.3750 0.1250 0.1250 (   280 PWs)   bands (ev):

    12.3704  18.8182  28.7901  35.2826  35.8350  39.8894  43.3114

          k =-0.1250 0.3750 0.1250 (   280 PWs)   bands (ev):

    12.3704  18.8182  28.7900  35.2827  35.8349  39.8894  43.3113

          k =-0.1250-0.3750-0.1250 (   280 PWs)   bands (ev):

    12.3704  18.8182  28.7900  35.2828  35.8348  39.8894  43.3113

          k = 0.1250 0.3750-0.1250 (   280 PWs)   bands (ev):

    12.3704  18.8182  28.7900  35.2828  35.8348  39.8894  43.3113

          k = 0.1250-0.3750 0.1250 (   280 PWs)   bands (ev):

    12.3704  18.8182  28.7900  35.2827  35.8349  39.8894  43.3113

          k =-0.1250-0.3750 0.3750 (   278 PWs)   bands (ev):

    15.8086  20.9375  23.3193  28.1883  35.7297  37.8093  49.3864

          k =-0.1250 0.3750-0.3750 (   278 PWs)   bands (ev):

    15.8086  20.9375  23.3193  28.1883  35.7297  37.8093  49.3865

          k = 0.1250-0.3750-0.3750 (   278 PWs)   bands (ev):

    15.8086  20.9375  23.3193  28.1883  35.7297  37.8093  49.3865

          k = 0.3750 0.1250-0.3750 (   278 PWs)   bands (ev):

    15.8086  20.9375  23.3193  28.1883  35.7297  37.8093  49.3864

          k =-0.3750-0.1250-0.3750 (   278 PWs)   bands (ev):

    15.8086  20.9375  23.3193  28.1883  35.7297  37.8093  49.3864

          k = 0.3750-0.1250 0.3750 (   278 PWs)   bands (ev):

    15.8086  20.9375  23.3193  28.1883  35.7297  37.8093  49.3864

          k =-0.3750 0.1250 0.3750 (   278 PWs)   bands (ev):

    15.8086  20.9375  23.3193  28.1883  35.7297  37.8093  49.3864

          k = 0.3750-0.3750 0.1250 (   278 PWs)   bands (ev):

    15.8086  20.9375  23.3193  28.1883  35.7297  37.8093  49.3865

          k =-0.3750-0.3750-0.1250 (   278 PWs)   bands (ev):

    15.8086  20.9375  23.3193  28.1883  35.7297  37.8093  49.3864

          k = 0.3750 0.3750-0.1250 (   278 PWs)   bands (ev):

    15.8086  20.9375  23.3193  28.1883  35.7297  37.8093  49.3864

          k =-0.3750 0.3750 0.1250 (   278 PWs)   bands (ev):

    15.8086  20.9375  23.3193  28.1883  35.7297  37.8093  49.3865

          k =-0.3750-0.3750 0.3750 (   289 PWs)   bands (ev):

    18.9095  23.5360  23.5360  29.1302  29.1456  29.1471  46.3150

          k =-0.3750 0.3750-0.3750 (   289 PWs)   bands (ev):

    18.9095  23.5359  23.5360  29.1311  29.1456  29.1463  46.3150

          k = 0.3750-0.3750-0.3750 (   289 PWs)   bands (ev):

    18.9095  23.5360  23.5360  29.1310  29.1456  29.1463  46.3150

     the Fermi energy is    28.4327 ev

!    total energy              =     -76.84815808 Ry
     Harris-Foulkes estimate   =     -76.84817790 Ry
     estimated scf accuracy    <       0.00000064 Ry

     total all-electron energy =      -969.133719 Ry

     The total energy is the sum of the following terms:

     one-electron contribution =      16.33657323 Ry
     hartree contribution      =       0.09271049 Ry
     xc contribution           =      -7.03889820 Ry
     ewald contribution        =     -16.21439947 Ry
     one-center paw contrib.   =     -70.02504191 Ry
     smearing contrib. (-TS)   =       0.00089778 Ry

     convergence has been achieved in   6 iterations

     Forces acting on atoms (cartesian axes, Ry/au):

     atom    1 type  1   force =     0.00251994   -0.00452306    0.00006147
     atom    2 type  1   force =    -0.00251994    0.00452306   -0.00006147

     Total force =     0.007323     Total SCF correction =     0.000194


     Computing stress (Cartesian axis) and pressure

          total   stress  (Ry/bohr**3)                   (kbar)     P=10847.03
   0.07373666  -0.00000020  -0.00000000      10847.04     -0.03     -0.00
  -0.00000020   0.07373640   0.00000003         -0.03  10847.00      0.00
  -0.00000000   0.00000003   0.07373682         -0.00      0.00  10847.06


     Writing output data file fe_scf_fcc_2.save/

     init_run     :      0.47s CPU      0.48s WALL (       1 calls)
     electrons    :      2.23s CPU      2.24s WALL (       1 calls)
     forces       :      0.04s CPU      0.04s WALL (       1 calls)
     stress       :      0.10s CPU      0.10s WALL (       1 calls)

     Called by init_run:
     wfcinit      :      0.08s CPU      0.08s WALL (       1 calls)
     potinit      :      0.14s CPU      0.15s WALL (       1 calls)
     hinit0       :      0.24s CPU      0.24s WALL (       1 calls)

     Called by electrons:
     c_bands      :      1.14s CPU      1.15s WALL (       7 calls)
     sum_band     :      0.25s CPU      0.26s WALL (       7 calls)
     v_of_rho     :      0.08s CPU      0.09s WALL (       7 calls)
     newd         :      0.04s CPU      0.04s WALL (       7 calls)
     PAW_pot      :      0.84s CPU      0.83s WALL (       7 calls)
     mix_rho      :      0.01s CPU      0.01s WALL (       7 calls)

     Called by c_bands:
     init_us_2    :      0.04s CPU      0.04s WALL (     544 calls)
     cegterg      :      1.12s CPU      1.11s WALL (     224 calls)

     Called by sum_band:
     sum_band:bec :      0.00s CPU      0.00s WALL (     224 calls)
     addusdens    :      0.03s CPU      0.03s WALL (       7 calls)

     Called by *egterg:
     h_psi        :      0.95s CPU      0.98s WALL (     837 calls)
     s_psi        :      0.02s CPU      0.02s WALL (     837 calls)
     g_psi        :      0.00s CPU      0.01s WALL (     581 calls)
     cdiaghg      :      0.10s CPU      0.09s WALL (     773 calls)

     Called by h_psi:
     h_psi:pot    :      0.94s CPU      0.97s WALL (     837 calls)
     h_psi:calbec :      0.02s CPU      0.02s WALL (     837 calls)
     vloc_psi     :      0.88s CPU      0.93s WALL (     837 calls)
     add_vuspsi   :      0.04s CPU      0.02s WALL (     837 calls)

     General routines
     calbec       :      0.03s CPU      0.03s WALL (    1221 calls)
     fft          :      0.06s CPU      0.07s WALL (     116 calls)
     ffts         :      0.00s CPU      0.01s WALL (      14 calls)
     fftw         :      0.97s CPU      1.03s WALL (   10576 calls)
     interpolate  :      0.01s CPU      0.01s WALL (       7 calls)

     Parallel routines

     PWSCF        :     3.28s CPU         3.32s WALL


   This run was terminated on:   0:32: 0  30Oct2019            

=------------------------------------------------------------------------------=
   JOB DONE.
=------------------------------------------------------------------------------=
