
     Program PWSCF v.6.3 starts on 30Oct2019 at  0:32:15 

     This program is part of the open-source Quantum ESPRESSO suite
     for quantum simulation of materials; please cite
         "P. Giannozzi et al., J. Phys.:Condens. Matter 21 395502 (2009);
         "P. Giannozzi et al., J. Phys.:Condens. Matter 29 465901 (2017);
          URL http://www.quantum-espresso.org", 
     in publications or presentations arising from this work. More details at
     http://www.quantum-espresso.org/quote

     Parallel version (MPI), running on     1 processors

     MPI processes distributed on     1 nodes
     Reading input from /cloud/Code/python/py_pwscf_converge/src/example2/wd/runpwscf/file_10218.in
Warning: card &IONS ignored
Warning: card ION_DYNAMICS = 'BFGS', ignored
Warning: card / ignored
Warning: card &CELL ignored
Warning: card CELL_DYNAMICS = 'BFGS', ignored
Warning: card CELL_FACTOR = 2.0, ignored
Warning: card PRESS = 0.0, ignored
Warning: card / ignored

     Current dimensions of program PWSCF are:
     Max number of different atomic species (ntypx) = 10
     Max number of k-points (npk) =  40000
     Max angular momentum in pseudopotentials (lmaxx) =  3
               file Al.pbe-nl-kjpaw_psl.1.0.0.UPF: wavefunction(s)  3S 3P renormalized

     Subspace diagonalization in iterative solution of the eigenvalue problem:
     a serial algorithm will be used


     G-vector sticks info
     --------------------
     sticks:   dense  smooth     PW     G-vecs:    dense   smooth      PW
     Sum         341     341    121                 4697     4697    1021



     bravais-lattice index     =            0
     lattice parameter (alat)  =       4.0400  a.u.
     unit-cell volume          =      65.9393 (a.u.)^3
     number of atoms/cell      =            2
     number of atomic types    =            1
     number of electrons       =         6.00
     number of Kohn-Sham states=            7
     kinetic-energy cutoff     =      75.0000  Ry
     charge density cutoff     =     260.0000  Ry
     convergence threshold     =      1.0E-06
     mixing beta               =       0.1000
     number of iterations used =           10  TF        mixing
     Exchange-correlation      = SLA PW PBX PBC ( 1  4  3  4 0 0)

     celldm(1)=   4.040000  celldm(2)=   0.000000  celldm(3)=   0.000000
     celldm(4)=   0.000000  celldm(5)=   0.000000  celldm(6)=   0.000000

     crystal axes: (cart. coord. in units of alat)
               a(1) = (   1.000000   0.000000   0.000000 )  
               a(2) = (   0.000000   1.000000   0.000000 )  
               a(3) = (   0.000000   0.000000   1.000000 )  

     reciprocal axes: (cart. coord. in units 2 pi/alat)
               b(1) = (  1.000000  0.000000  0.000000 )  
               b(2) = (  0.000000  1.000000  0.000000 )  
               b(3) = (  0.000000  0.000000  1.000000 )  


     PseudoPot. # 1 for Al read from file:
     /opt/pp/Al.pbe-nl-kjpaw_psl.1.0.0.UPF
     MD5 check sum: 1b67f78b73fe58c7924490f171ce8a1e
     Pseudo is Projector augmented-wave + core cor, Zval =  3.0
     Generated using "atomic" code by A. Dal Corso v.6.3
     Shape of augmentation charge: PSQ
     Using radial grid of 1135 points,  4 beta functions with: 
                l(1) =   0
                l(2) =   0
                l(3) =   1
                l(4) =   1
     Q(r) pseudized with 0 coefficients 


     atomic species   valence    mass     pseudopotential
        Al             3.00    26.98200     Al( 1.00)

     No symmetry found



   Cartesian axes

     site n.     atom                  positions (alat units)
         1           Al  tau(   1) = (  -0.0001235   0.0000359   0.0002572  )
         2           Al  tau(   2) = (   0.5003009   0.4992819   0.5002658  )

     number of k points=    32  Marzari-Vanderbilt smearing, width (Ry)=  0.0200
                       cart. coord. in units 2pi/alat
        k(    1) = (   0.1250000   0.1250000   0.1250000), wk =   0.0625000
        k(    2) = (   0.1250000   0.1250000   0.3750000), wk =   0.0625000
        k(    3) = (   0.1250000   0.3750000   0.3750000), wk =   0.0625000
        k(    4) = (   0.3750000   0.3750000   0.3750000), wk =   0.0625000
        k(    5) = (  -0.1250000  -0.1250000   0.1250000), wk =   0.0625000
        k(    6) = (  -0.1250000   0.1250000  -0.1250000), wk =   0.0625000
        k(    7) = (   0.1250000  -0.1250000  -0.1250000), wk =   0.0625000
        k(    8) = (  -0.1250000  -0.1250000   0.3750000), wk =   0.0625000
        k(    9) = (  -0.1250000   0.1250000  -0.3750000), wk =   0.0625000
        k(   10) = (   0.1250000  -0.1250000  -0.3750000), wk =   0.0625000
        k(   11) = (   0.3750000  -0.1250000   0.1250000), wk =   0.0625000
        k(   12) = (  -0.3750000  -0.1250000  -0.1250000), wk =   0.0625000
        k(   13) = (   0.3750000   0.1250000  -0.1250000), wk =   0.0625000
        k(   14) = (  -0.3750000   0.1250000   0.1250000), wk =   0.0625000
        k(   15) = (  -0.1250000   0.3750000   0.1250000), wk =   0.0625000
        k(   16) = (  -0.1250000  -0.3750000  -0.1250000), wk =   0.0625000
        k(   17) = (   0.1250000   0.3750000  -0.1250000), wk =   0.0625000
        k(   18) = (   0.1250000  -0.3750000   0.1250000), wk =   0.0625000
        k(   19) = (  -0.1250000  -0.3750000   0.3750000), wk =   0.0625000
        k(   20) = (  -0.1250000   0.3750000  -0.3750000), wk =   0.0625000
        k(   21) = (   0.1250000  -0.3750000  -0.3750000), wk =   0.0625000
        k(   22) = (   0.3750000   0.1250000  -0.3750000), wk =   0.0625000
        k(   23) = (  -0.3750000  -0.1250000  -0.3750000), wk =   0.0625000
        k(   24) = (   0.3750000  -0.1250000   0.3750000), wk =   0.0625000
        k(   25) = (  -0.3750000   0.1250000   0.3750000), wk =   0.0625000
        k(   26) = (   0.3750000  -0.3750000   0.1250000), wk =   0.0625000
        k(   27) = (  -0.3750000  -0.3750000  -0.1250000), wk =   0.0625000
        k(   28) = (   0.3750000   0.3750000  -0.1250000), wk =   0.0625000
        k(   29) = (  -0.3750000   0.3750000   0.1250000), wk =   0.0625000
        k(   30) = (  -0.3750000  -0.3750000   0.3750000), wk =   0.0625000
        k(   31) = (  -0.3750000   0.3750000  -0.3750000), wk =   0.0625000
        k(   32) = (   0.3750000  -0.3750000  -0.3750000), wk =   0.0625000

     Dense  grid:     4697 G-vectors     FFT dimensions: (  24,  24,  24)

     Estimated max dynamical RAM per process >       9.74 MB

     Initial potential from superposition of free atoms

     starting charge    5.99542, renormalised to    6.00000
     Starting wfcs are    8 randomized atomic wfcs
     Checking if some PAW data can be deallocated... 

     total cpu time spent up to now is        1.1 secs

     Self-consistent Calculation

     iteration #  1     ecut=    75.00 Ry     beta= 0.10
     Davidson diagonalization with overlap
     ethr =  1.00E-02,  avg # of iterations =  4.2

     Threshold (ethr) on eigenvalues was too large:
     Diagonalizing with lowered threshold

     Davidson diagonalization with overlap
     ethr =  5.98E-04,  avg # of iterations =  1.0

     total cpu time spent up to now is        2.3 secs

     total energy              =     -76.87956351 Ry
     Harris-Foulkes estimate   =     -76.89118349 Ry
     estimated scf accuracy    <       0.03587989 Ry

     iteration #  2     ecut=    75.00 Ry     beta= 0.10
     Davidson diagonalization with overlap
     ethr =  5.98E-04,  avg # of iterations =  1.0

     total cpu time spent up to now is        2.8 secs

     total energy              =     -76.84897409 Ry
     Harris-Foulkes estimate   =     -76.87960579 Ry
     estimated scf accuracy    <       0.03071631 Ry

     iteration #  3     ecut=    75.00 Ry     beta= 0.10
     Davidson diagonalization with overlap
     ethr =  5.12E-04,  avg # of iterations =  1.9

     total cpu time spent up to now is        3.3 secs

     total energy              =     -76.85022012 Ry
     Harris-Foulkes estimate   =     -76.85200781 Ry
     estimated scf accuracy    <       0.00013209 Ry

     iteration #  4     ecut=    75.00 Ry     beta= 0.10
     Davidson diagonalization with overlap
     ethr =  2.20E-06,  avg # of iterations =  5.3

     total cpu time spent up to now is        4.1 secs

     total energy              =     -76.84838534 Ry
     Harris-Foulkes estimate   =     -76.85036085 Ry
     estimated scf accuracy    <       0.00008830 Ry

     iteration #  5     ecut=    75.00 Ry     beta= 0.10
     Davidson diagonalization with overlap
     ethr =  1.47E-06,  avg # of iterations =  2.1

     total cpu time spent up to now is        4.7 secs

     total energy              =     -76.84841519 Ry
     Harris-Foulkes estimate   =     -76.84842689 Ry
     estimated scf accuracy    <       0.00000322 Ry

     iteration #  6     ecut=    75.00 Ry     beta= 0.10
     Davidson diagonalization with overlap
     ethr =  5.36E-08,  avg # of iterations =  3.0

     total cpu time spent up to now is        5.4 secs

     End of self-consistent calculation

          k = 0.1250 0.1250 0.1250 (   724 PWs)   bands (ev):

     8.6284  25.4947  25.4947  34.8447  40.9218  40.9218  44.6721

          k = 0.1250 0.1250 0.3750 (   733 PWs)   bands (ev):

    12.3708  18.8187  28.7891  35.2804  35.8342  39.8859  43.3095

          k = 0.1250 0.3750 0.3750 (   723 PWs)   bands (ev):

    15.8092  20.9382  23.3189  28.1878  35.7278  37.8068  49.3826

          k = 0.3750 0.3750 0.3750 (   717 PWs)   bands (ev):

    18.9100  23.5363  23.5363  29.1296  29.1453  29.1468  46.3155

          k =-0.1250-0.1250 0.1250 (   724 PWs)   bands (ev):

     8.6284  25.4947  25.4947  34.8447  40.9218  40.9218  44.6721

          k =-0.1250 0.1250-0.1250 (   724 PWs)   bands (ev):

     8.6284  25.4947  25.4947  34.8447  40.9217  40.9218  44.6721

          k = 0.1250-0.1250-0.1250 (   724 PWs)   bands (ev):

     8.6284  25.4947  25.4947  34.8447  40.9217  40.9218  44.6721

          k =-0.1250-0.1250 0.3750 (   733 PWs)   bands (ev):

    12.3708  18.8187  28.7891  35.2804  35.8342  39.8859  43.3095

          k =-0.1250 0.1250-0.3750 (   733 PWs)   bands (ev):

    12.3708  18.8187  28.7891  35.2807  35.8339  39.8859  43.3096

          k = 0.1250-0.1250-0.3750 (   733 PWs)   bands (ev):

    12.3708  18.8187  28.7891  35.2807  35.8339  39.8859  43.3096

          k = 0.3750-0.1250 0.1250 (   733 PWs)   bands (ev):

    12.3708  18.8186  28.7891  35.2806  35.8340  39.8859  43.3096

          k =-0.3750-0.1250-0.1250 (   733 PWs)   bands (ev):

    12.3708  18.8186  28.7891  35.2806  35.8340  39.8859  43.3095

          k = 0.3750 0.1250-0.1250 (   733 PWs)   bands (ev):

    12.3708  18.8186  28.7891  35.2806  35.8340  39.8859  43.3095

          k =-0.3750 0.1250 0.1250 (   733 PWs)   bands (ev):

    12.3708  18.8186  28.7891  35.2806  35.8340  39.8859  43.3096

          k =-0.1250 0.3750 0.1250 (   733 PWs)   bands (ev):

    12.3708  18.8187  28.7891  35.2807  35.8339  39.8859  43.3096

          k =-0.1250-0.3750-0.1250 (   733 PWs)   bands (ev):

    12.3708  18.8187  28.7891  35.2807  35.8339  39.8859  43.3095

          k = 0.1250 0.3750-0.1250 (   733 PWs)   bands (ev):

    12.3708  18.8187  28.7891  35.2807  35.8339  39.8859  43.3095

          k = 0.1250-0.3750 0.1250 (   733 PWs)   bands (ev):

    12.3708  18.8187  28.7891  35.2807  35.8339  39.8859  43.3096

          k =-0.1250-0.3750 0.3750 (   723 PWs)   bands (ev):

    15.8092  20.9382  23.3189  28.1878  35.7278  37.8068  49.3826

          k =-0.1250 0.3750-0.3750 (   723 PWs)   bands (ev):

    15.8092  20.9382  23.3189  28.1878  35.7277  37.8068  49.3827

          k = 0.1250-0.3750-0.3750 (   723 PWs)   bands (ev):

    15.8092  20.9382  23.3189  28.1878  35.7277  37.8068  49.3827

          k = 0.3750 0.1250-0.3750 (   723 PWs)   bands (ev):

    15.8092  20.9382  23.3189  28.1878  35.7278  37.8068  49.3826

          k =-0.3750-0.1250-0.3750 (   723 PWs)   bands (ev):

    15.8092  20.9382  23.3189  28.1878  35.7278  37.8068  49.3826

          k = 0.3750-0.1250 0.3750 (   723 PWs)   bands (ev):

    15.8092  20.9382  23.3189  28.1878  35.7277  37.8068  49.3827

          k =-0.3750 0.1250 0.3750 (   723 PWs)   bands (ev):

    15.8092  20.9382  23.3189  28.1878  35.7277  37.8068  49.3827

          k = 0.3750-0.3750 0.1250 (   723 PWs)   bands (ev):

    15.8092  20.9382  23.3189  28.1878  35.7278  37.8068  49.3827

          k =-0.3750-0.3750-0.1250 (   723 PWs)   bands (ev):

    15.8092  20.9382  23.3189  28.1878  35.7277  37.8068  49.3827

          k = 0.3750 0.3750-0.1250 (   723 PWs)   bands (ev):

    15.8092  20.9382  23.3189  28.1878  35.7277  37.8068  49.3827

          k =-0.3750 0.3750 0.1250 (   723 PWs)   bands (ev):

    15.8092  20.9382  23.3189  28.1878  35.7277  37.8068  49.3827

          k =-0.3750-0.3750 0.3750 (   717 PWs)   bands (ev):

    18.9100  23.5363  23.5363  29.1296  29.1453  29.1468  46.3155

          k =-0.3750 0.3750-0.3750 (   717 PWs)   bands (ev):

    18.9100  23.5362  23.5363  29.1305  29.1453  29.1459  46.3155

          k = 0.3750-0.3750-0.3750 (   717 PWs)   bands (ev):

    18.9100  23.5363  23.5363  29.1304  29.1453  29.1459  46.3155

     the Fermi energy is    28.4321 ev

!    total energy              =     -76.84840188 Ry
     Harris-Foulkes estimate   =     -76.84841796 Ry
     estimated scf accuracy    <       0.00000058 Ry

     total all-electron energy =      -969.133963 Ry

     The total energy is the sum of the following terms:

     one-electron contribution =      16.33618351 Ry
     hartree contribution      =       0.09270713 Ry
     xc contribution           =      -7.03878161 Ry
     ewald contribution        =     -16.21439947 Ry
     one-center paw contrib.   =     -70.02500740 Ry
     smearing contrib. (-TS)   =       0.00089598 Ry

     convergence has been achieved in   6 iterations

     Forces acting on atoms (cartesian axes, Ry/au):

     atom    1 type  1   force =     0.00251381   -0.00452092    0.00006210
     atom    2 type  1   force =    -0.00251381    0.00452092   -0.00006210

     Total force =     0.007316     Total SCF correction =     0.000178


     Computing stress (Cartesian axis) and pressure

          total   stress  (Ry/bohr**3)                   (kbar)     P=10848.34
   0.07374558  -0.00000021  -0.00000000      10848.35     -0.03     -0.00
  -0.00000021   0.07374529   0.00000003         -0.03  10848.31      0.00
  -0.00000000   0.00000003   0.07374573         -0.00      0.00  10848.37


     Writing output data file fe_scf_fcc_2.save/

     init_run     :      0.61s CPU      0.63s WALL (       1 calls)
     electrons    :      4.22s CPU      4.30s WALL (       1 calls)
     forces       :      0.05s CPU      0.05s WALL (       1 calls)
     stress       :      0.17s CPU      0.17s WALL (       1 calls)

     Called by init_run:
     wfcinit      :      0.18s CPU      0.19s WALL (       1 calls)
     potinit      :      0.14s CPU      0.14s WALL (       1 calls)
     hinit0       :      0.28s CPU      0.28s WALL (       1 calls)

     Called by electrons:
     c_bands      :      2.86s CPU      2.91s WALL (       7 calls)
     sum_band     :      0.53s CPU      0.53s WALL (       7 calls)
     v_of_rho     :      0.10s CPU      0.09s WALL (       7 calls)
     newd         :      0.04s CPU      0.05s WALL (       7 calls)
     PAW_pot      :      0.82s CPU      0.84s WALL (       7 calls)
     mix_rho      :      0.00s CPU      0.01s WALL (       7 calls)

     Called by c_bands:
     init_us_2    :      0.11s CPU      0.11s WALL (     544 calls)
     cegterg      :      2.77s CPU      2.79s WALL (     224 calls)

     Called by sum_band:
     sum_band:bec :      0.00s CPU      0.00s WALL (     224 calls)
     addusdens    :      0.03s CPU      0.03s WALL (       7 calls)

     Called by *egterg:
     h_psi        :      2.54s CPU      2.58s WALL (     848 calls)
     s_psi        :      0.08s CPU      0.05s WALL (     848 calls)
     g_psi        :      0.00s CPU      0.01s WALL (     592 calls)
     cdiaghg      :      0.10s CPU      0.10s WALL (     784 calls)

     Called by h_psi:
     h_psi:pot    :      2.52s CPU      2.57s WALL (     848 calls)
     h_psi:calbec :      0.02s CPU      0.05s WALL (     848 calls)
     vloc_psi     :      2.44s CPU      2.45s WALL (     848 calls)
     add_vuspsi   :      0.06s CPU      0.06s WALL (     848 calls)

     General routines
     calbec       :      0.03s CPU      0.08s WALL (    1232 calls)
     fft          :      0.08s CPU      0.07s WALL (     104 calls)
     ffts         :      0.00s CPU      0.00s WALL (       7 calls)
     fftw         :      2.70s CPU      2.67s WALL (   10616 calls)

     Parallel routines

     PWSCF        :     5.49s CPU         5.61s WALL


   This run was terminated on:   0:32:20  30Oct2019            

=------------------------------------------------------------------------------=
   JOB DONE.
=------------------------------------------------------------------------------=
