
     Program PWSCF v.6.4.1 starts on 19Mar2020 at  4:43:18 

     This program is part of the open-source Quantum ESPRESSO suite
     for quantum simulation of materials; please cite
         "P. Giannozzi et al., J. Phys.:Condens. Matter 21 395502 (2009);
         "P. Giannozzi et al., J. Phys.:Condens. Matter 29 465901 (2017);
          URL http://www.quantum-espresso.org", 
     in publications or presentations arising from this work. More details at
     http://www.quantum-espresso.org/quote

     Parallel version (MPI), running on     4 processors

     MPI processes distributed on     1 nodes
     R & G space division:  proc/nbgrp/npool/nimage =       4
     Reading input from wd/ecut/file_000041.in
Warning: card &IONS ignored
Warning: card ION_DYNAMICS = 'BFGS', ignored
Warning: card / ignored
Warning: card &CELL ignored
Warning: card CELL_DYNAMICS = 'BFGS', ignored
Warning: card CELL_FACTOR = 2.0, ignored
Warning: card PRESS = 0.0, ignored
Warning: card / ignored

     Current dimensions of program PWSCF are:
     Max number of different atomic species (ntypx) = 10
     Max number of k-points (npk) =  40000
     Max angular momentum in pseudopotentials (lmaxx) =  3
               file Al.pbe-nl-kjpaw_psl.1.0.0.UPF: wavefunction(s)  3S 3P renormalized

     Subspace diagonalization in iterative solution of the eigenvalue problem:
     a serial algorithm will be used


     Parallelization info
     --------------------
     sticks:   dense  smooth     PW     G-vecs:    dense   smooth      PW
     Min         181     181    105                 3632     3632    1653
     Max         182     182    106                 3633     3633    1658
     Sum         725     725    421                14531    14531    6619



     bravais-lattice index     =            0
     lattice parameter (alat)  =       9.5256  a.u.
     unit-cell volume          =     864.3249 (a.u.)^3
     number of atoms/cell      =            8
     number of atomic types    =            1
     number of electrons       =        24.00
     number of Kohn-Sham states=           16
     kinetic-energy cutoff     =      50.0000  Ry
     charge density cutoff     =     100.0000  Ry
     convergence threshold     =      1.0E-06
     mixing beta               =       0.1000
     number of iterations used =           10  TF        mixing
     Exchange-correlation      = SLA PW PBX PBC ( 1  4  3  4 0 0)

     celldm(1)=   9.525600  celldm(2)=   0.000000  celldm(3)=   0.000000
     celldm(4)=   0.000000  celldm(5)=   0.000000  celldm(6)=   0.000000

     crystal axes: (cart. coord. in units of alat)
               a(1) = (   1.000000   0.000000   0.000000 )  
               a(2) = (   0.000000   1.000000   0.000000 )  
               a(3) = (   0.000000   0.000000   1.000000 )  

     reciprocal axes: (cart. coord. in units 2 pi/alat)
               b(1) = (  1.000000  0.000000  0.000000 )  
               b(2) = (  0.000000  1.000000  0.000000 )  
               b(3) = (  0.000000  0.000000  1.000000 )  


     PseudoPot. # 1 for Al read from file:
     /opt/pp/Al.pbe-nl-kjpaw_psl.1.0.0.UPF
     MD5 check sum: 1b67f78b73fe58c7924490f171ce8a1e
     Pseudo is Projector augmented-wave + core cor, Zval =  3.0
     Generated using "atomic" code by A. Dal Corso v.6.3
     Shape of augmentation charge: PSQ
     Using radial grid of 1135 points,  4 beta functions with: 
                l(1) =   0
                l(2) =   0
                l(3) =   1
                l(4) =   1
     Q(r) pseudized with 0 coefficients 


     atomic species   valence    mass     pseudopotential
        Al             3.00    26.98200     Al( 1.00)

     No symmetry found



   Cartesian axes

     site n.     atom                  positions (alat units)
         1           Al  tau(   1) = (  -0.0000524   0.0000152   0.0001091  )
         2           Al  tau(   2) = (   0.5001276   0.4996954   0.0001127  )
         3           Al  tau(   3) = (   0.4998511   0.0000489   0.5004737  )
         4           Al  tau(   4) = (  -0.0000321   0.5003506   0.5002945  )
         5           Al  tau(   5) = (   0.2504101   0.2504042   0.2498092  )
         6           Al  tau(   6) = (   0.7501915   0.7497316   0.2500057  )
         7           Al  tau(   7) = (   0.2500445   0.7502467   0.7498205  )
         8           Al  tau(   8) = (   0.7500880   0.2501822   0.7503368  )

     number of k points=    14  Marzari-Vanderbilt smearing, width (Ry)=  0.0200
                       cart. coord. in units 2pi/alat
        k(    1) = (   0.1666667   0.1666667   0.1666667), wk =   0.1481481
        k(    2) = (   0.1666667   0.1666667  -0.5000000), wk =   0.1481481
        k(    3) = (   0.1666667  -0.5000000  -0.5000000), wk =   0.1481481
        k(    4) = (  -0.5000000  -0.5000000  -0.5000000), wk =   0.0740741
        k(    5) = (  -0.1666667  -0.1666667   0.1666667), wk =   0.1481481
        k(    6) = (  -0.1666667   0.1666667  -0.1666667), wk =   0.1481481
        k(    7) = (   0.1666667  -0.1666667  -0.1666667), wk =   0.1481481
        k(    8) = (  -0.1666667   0.1666667   0.5000000), wk =   0.1481481
        k(    9) = (  -0.5000000  -0.1666667   0.1666667), wk =   0.1481481
        k(   10) = (   0.5000000  -0.1666667  -0.1666667), wk =   0.1481481
        k(   11) = (  -0.1666667  -0.5000000   0.1666667), wk =   0.1481481
        k(   12) = (  -0.1666667   0.5000000  -0.1666667), wk =   0.1481481
        k(   13) = (  -0.5000000   0.1666667   0.5000000), wk =   0.1481481
        k(   14) = (  -0.5000000   0.5000000   0.1666667), wk =   0.1481481

     Dense  grid:    14531 G-vectors     FFT dimensions: (  32,  32,  32)

     Estimated max dynamical RAM per process >      12.61 MB

     Estimated total dynamical RAM >      50.44 MB

     Initial potential from superposition of free atoms

     starting charge   23.98168, renormalised to   24.00000
     Starting wfcs are   32 randomized atomic wfcs
     Checking if some PAW data can be deallocated... 

     total cpu time spent up to now is        0.7 secs

     Self-consistent Calculation

     iteration #  1     ecut=    50.00 Ry     beta= 0.10
     Davidson diagonalization with overlap
     ethr =  1.00E-02,  avg # of iterations =  2.3

     Threshold (ethr) on eigenvalues was too large:
     Diagonalizing with lowered threshold

     Davidson diagonalization with overlap
     ethr =  1.70E-04,  avg # of iterations =  2.7

     total cpu time spent up to now is        1.7 secs

     total energy              =    -314.81215244 Ry
     Harris-Foulkes estimate   =    -314.81461379 Ry
     estimated scf accuracy    <       0.03908885 Ry

     iteration #  2     ecut=    50.00 Ry     beta= 0.10
     Davidson diagonalization with overlap
     ethr =  1.63E-04,  avg # of iterations =  1.0

     total cpu time spent up to now is        2.1 secs

     total energy              =    -314.80386028 Ry
     Harris-Foulkes estimate   =    -314.81240345 Ry
     estimated scf accuracy    <       0.03395127 Ry

     iteration #  3     ecut=    50.00 Ry     beta= 0.10
     Davidson diagonalization with overlap
     ethr =  1.41E-04,  avg # of iterations =  1.0

     total cpu time spent up to now is        2.5 secs

     total energy              =    -314.80545718 Ry
     Harris-Foulkes estimate   =    -314.80596645 Ry
     estimated scf accuracy    <       0.00064857 Ry

     iteration #  4     ecut=    50.00 Ry     beta= 0.10
     Davidson diagonalization with overlap
     ethr =  2.70E-06,  avg # of iterations =  5.8

     total cpu time spent up to now is        3.3 secs

     total energy              =    -314.80544763 Ry
     Harris-Foulkes estimate   =    -314.80610513 Ry
     estimated scf accuracy    <       0.00029230 Ry

     iteration #  5     ecut=    50.00 Ry     beta= 0.10
     Davidson diagonalization with overlap
     ethr =  1.22E-06,  avg # of iterations =  1.0

     total cpu time spent up to now is        3.7 secs

     total energy              =    -314.80526868 Ry
     Harris-Foulkes estimate   =    -314.80546319 Ry
     estimated scf accuracy    <       0.00025921 Ry

     iteration #  6     ecut=    50.00 Ry     beta= 0.10
     Davidson diagonalization with overlap
     ethr =  1.08E-06,  avg # of iterations =  2.0

     total cpu time spent up to now is        4.1 secs

     total energy              =    -314.80529711 Ry
     Harris-Foulkes estimate   =    -314.80529466 Ry
     estimated scf accuracy    <       0.00001337 Ry

     iteration #  7     ecut=    50.00 Ry     beta= 0.10
     Davidson diagonalization with overlap
     ethr =  5.57E-08,  avg # of iterations =  2.9

     total cpu time spent up to now is        4.6 secs

     total energy              =    -314.80526326 Ry
     Harris-Foulkes estimate   =    -314.80530005 Ry
     estimated scf accuracy    <       0.00001170 Ry

     iteration #  8     ecut=    50.00 Ry     beta= 0.10
     Davidson diagonalization with overlap
     ethr =  4.88E-08,  avg # of iterations =  1.0

     total cpu time spent up to now is        5.0 secs

     total energy              =    -314.80524495 Ry
     Harris-Foulkes estimate   =    -314.80526361 Ry
     estimated scf accuracy    <       0.00000737 Ry

     iteration #  9     ecut=    50.00 Ry     beta= 0.10
     Davidson diagonalization with overlap
     ethr =  3.07E-08,  avg # of iterations =  2.1

     total cpu time spent up to now is        5.5 secs

     End of self-consistent calculation

          k = 0.1667 0.1667 0.1667 (  5179 PWs)   bands (ev):

    -3.0188   0.5932   0.5988   0.6031   3.6773   3.6826   3.6873   5.0193
     5.0240   5.0292   7.0184   7.0193   7.0209   7.6416   9.5840   9.5853

          k = 0.1667 0.1667-0.5000 (  5152 PWs)   bands (ev):

    -1.7890  -1.7848   1.2262   1.2268   2.5467   2.5478   5.0879   5.0882
     5.4583   5.4622   6.1791   6.1802   8.0493   8.0555   8.2119   8.2151

          k = 0.1667-0.5000-0.5000 (  5148 PWs)   bands (ev):

    -0.6199  -0.6169  -0.6147  -0.6092   3.2689   3.2721   3.2750   3.2796
     6.5391   6.5421   6.5450   6.5496   8.8823   8.8835   8.8848   8.8922

          k =-0.5000-0.5000-0.5000 (  5232 PWs)   bands (ev):

     0.0241   0.0260   0.0279   0.0301   1.4971   1.4997   1.5023   1.5033
     9.1876   9.1900   9.1920   9.1934   9.1946   9.1971   9.1985   9.2011

          k =-0.1667-0.1667 0.1667 (  5179 PWs)   bands (ev):

    -3.0187   0.5947   0.5985   0.6013   3.6806   3.6840   3.6872   5.0188
     5.0218   5.0252   7.0197   7.0206   7.0213   7.6397   9.5842   9.5862

          k =-0.1667 0.1667-0.1667 (  5179 PWs)   bands (ev):

    -3.0188   0.5964   0.5988   0.6000   3.6803   3.6825   3.6837   5.0229
     5.0245   5.0261   7.0179   7.0193   7.0209   7.6419   9.5829   9.5855

          k = 0.1667-0.1667-0.1667 (  5179 PWs)   bands (ev):

    -3.0188   0.5938   0.5990   0.6025   3.6773   3.6822   3.6858   5.0209
     5.0252   5.0294   7.0183   7.0187   7.0203   7.6424   9.5836   9.5852

          k =-0.1667 0.1667 0.5000 (  5152 PWs)   bands (ev):

    -1.7890  -1.7848   1.2254   1.2298   2.5428   2.5471   5.0886   5.0929
     5.4588   5.4632   6.1761   6.1802   8.0473   8.0518   8.2140   8.2175

          k =-0.5000-0.1667 0.1667 (  5152 PWs)   bands (ev):

    -1.7876  -1.7861   1.2261   1.2271   2.5464   2.5476   5.0879   5.0887
     5.4592   5.4615   6.1789   6.1801   8.0511   8.0533   8.2121   8.2153

          k = 0.5000-0.1667-0.1667 (  5152 PWs)   bands (ev):

    -1.7877  -1.7861   1.2262   1.2287   2.5436   2.5467   5.0894   5.0915
     5.4601   5.4618   6.1768   6.1798   8.0489   8.0506   8.2148   8.2163

          k =-0.1667-0.5000 0.1667 (  5152 PWs)   bands (ev):

    -1.7887  -1.7850   1.2255   1.2281   2.5454   2.5478   5.0875   5.0901
     5.4583   5.4626   6.1780   6.1804   8.0493   8.0540   8.2117   8.2165

          k =-0.1667 0.5000-0.1667 (  5152 PWs)   bands (ev):

    -1.7887  -1.7851   1.2256   1.2289   2.5434   2.5478   5.0886   5.0913
     5.4591   5.4625   6.1764   6.1807   8.0479   8.0528   8.2139   8.2164

          k =-0.5000 0.1667 0.5000 (  5148 PWs)   bands (ev):

    -0.6187  -0.6162  -0.6135  -0.6123   3.2706   3.2726   3.2750   3.2773
     6.5407   6.5426   6.5449   6.5476   8.8825   8.8840   8.8872   8.8890

          k =-0.5000 0.5000 0.1667 (  5148 PWs)   bands (ev):

    -0.6196  -0.6162  -0.6130  -0.6119   3.2702   3.2718   3.2755   3.2780
     6.5403   6.5418   6.5456   6.5480   8.8805   8.8846   8.8868   8.8908

     the Fermi energy is     7.1746 ev

!    total energy              =    -314.80524660 Ry
     Harris-Foulkes estimate   =    -314.80524674 Ry
     estimated scf accuracy    <       0.00000023 Ry

     total all-electron energy =     -3883.947491 Ry

     The total energy is the sum of the following terms:

     one-electron contribution =      24.70866075 Ry
     hartree contribution      =       0.76403314 Ry
     xc contribution           =     -21.50496191 Ry
     ewald contribution        =     -40.71648508 Ry
     one-center paw contrib.   =    -278.05626151 Ry
     smearing contrib. (-TS)   =      -0.00023199 Ry

     convergence has been achieved in   9 iterations

     Forces acting on atoms (cartesian axes, Ry/au):

     atom    1 type  1   force =     0.00077410    0.00010502    0.00080868
     atom    2 type  1   force =    -0.00052274    0.00280594   -0.00162507
     atom    3 type  1   force =     0.00179988    0.00062416   -0.00207819
     atom    4 type  1   force =     0.00064997   -0.00205648   -0.00036407
     atom    5 type  1   force =    -0.00196865   -0.00107889    0.00175722
     atom    6 type  1   force =    -0.00176342    0.00140423    0.00034894
     atom    7 type  1   force =     0.00037211   -0.00122833    0.00247650
     atom    8 type  1   force =     0.00065875   -0.00057566   -0.00132401

     Total force =     0.006958     Total SCF correction =     0.000261


     Computing stress (Cartesian axis) and pressure

          total   stress  (Ry/bohr**3)                   (kbar)     P=  579.78
   0.00394131   0.00001437  -0.00000646        579.79      2.11     -0.95
   0.00001437   0.00394129  -0.00001189          2.11    579.78     -1.75
  -0.00000646  -0.00001189   0.00394128         -0.95     -1.75    579.78


     Writing output data file fe_scf_fcc_2.save/

     init_run     :      0.39s CPU      0.40s WALL (       1 calls)
     electrons    :      4.57s CPU      4.75s WALL (       1 calls)
     forces       :      0.12s CPU      0.12s WALL (       1 calls)
     stress       :      0.17s CPU      0.17s WALL (       1 calls)

     Called by init_run:
     wfcinit      :      0.27s CPU      0.28s WALL (       1 calls)
     potinit      :      0.07s CPU      0.07s WALL (       1 calls)
     hinit0       :      0.04s CPU      0.04s WALL (       1 calls)

     Called by electrons:
     c_bands      :      3.50s CPU      3.65s WALL (      10 calls)
     sum_band     :      0.44s CPU      0.47s WALL (      10 calls)
     v_of_rho     :      0.04s CPU      0.04s WALL (      10 calls)
     newd         :      0.03s CPU      0.03s WALL (      10 calls)
     PAW_pot      :      0.62s CPU      0.62s WALL (      10 calls)
     mix_rho      :      0.00s CPU      0.00s WALL (      10 calls)

     Called by c_bands:
     init_us_2    :      0.08s CPU      0.09s WALL (     322 calls)
     cegterg      :      3.32s CPU      3.46s WALL (     140 calls)

     Called by sum_band:
     sum_band:bec :      0.00s CPU      0.00s WALL (     140 calls)
     addusdens    :      0.02s CPU      0.02s WALL (      10 calls)

     Called by *egterg:
     h_psi        :      2.00s CPU      2.11s WALL (     458 calls)
     s_psi        :      0.42s CPU      0.44s WALL (     458 calls)
     g_psi        :      0.02s CPU      0.02s WALL (     304 calls)
     cdiaghg      :      0.15s CPU      0.15s WALL (     430 calls)

     Called by h_psi:
     h_psi:pot    :      1.98s CPU      2.09s WALL (     458 calls)
     h_psi:calbec :      0.56s CPU      0.60s WALL (     458 calls)
     vloc_psi     :      1.00s CPU      1.05s WALL (     458 calls)
     add_vuspsi   :      0.42s CPU      0.44s WALL (     458 calls)

     General routines
     calbec       :      0.88s CPU      0.93s WALL (     668 calls)
     fft          :      0.02s CPU      0.02s WALL (     136 calls)
     ffts         :      0.00s CPU      0.00s WALL (      10 calls)
     fftw         :      1.08s CPU      1.14s WALL (   14592 calls)

     Parallel routines
     fft_scatt_xy :      0.13s CPU      0.13s WALL (   14738 calls)
     fft_scatt_yz :      0.61s CPU      0.65s WALL (   14738 calls)

     PWSCF        :      5.58s CPU      5.78s WALL


   This run was terminated on:   4:43:24  19Mar2020            

=------------------------------------------------------------------------------=
   JOB DONE.
=------------------------------------------------------------------------------=
