
     Program PWSCF v.6.4.1 starts on 19Mar2020 at  4:41:57 

     This program is part of the open-source Quantum ESPRESSO suite
     for quantum simulation of materials; please cite
         "P. Giannozzi et al., J. Phys.:Condens. Matter 21 395502 (2009);
         "P. Giannozzi et al., J. Phys.:Condens. Matter 29 465901 (2017);
          URL http://www.quantum-espresso.org", 
     in publications or presentations arising from this work. More details at
     http://www.quantum-espresso.org/quote

     Parallel version (MPI), running on     4 processors

     MPI processes distributed on     1 nodes
     R & G space division:  proc/nbgrp/npool/nimage =       4
     Reading input from wd/ecut/file_000022.in
Warning: card &IONS ignored
Warning: card ION_DYNAMICS = 'BFGS', ignored
Warning: card / ignored
Warning: card &CELL ignored
Warning: card CELL_DYNAMICS = 'BFGS', ignored
Warning: card CELL_FACTOR = 2.0, ignored
Warning: card PRESS = 0.0, ignored
Warning: card / ignored

     Current dimensions of program PWSCF are:
     Max number of different atomic species (ntypx) = 10
     Max number of k-points (npk) =  40000
     Max angular momentum in pseudopotentials (lmaxx) =  3
               file Al.pbe-nl-kjpaw_psl.1.0.0.UPF: wavefunction(s)  3S 3P renormalized

     Subspace diagonalization in iterative solution of the eigenvalue problem:
     a serial algorithm will be used


     Parallelization info
     --------------------
     sticks:   dense  smooth     PW     G-vecs:    dense   smooth      PW
     Min         143     143     86                 2597     2597    1200
     Max         145     145     88                 2600     2600    1201
     Sum         577     577    349                10395    10395    4801



     bravais-lattice index     =            0
     lattice parameter (alat)  =       9.5256  a.u.
     unit-cell volume          =     864.3249 (a.u.)^3
     number of atoms/cell      =            8
     number of atomic types    =            1
     number of electrons       =        24.00
     number of Kohn-Sham states=           16
     kinetic-energy cutoff     =      40.0000  Ry
     charge density cutoff     =      80.0000  Ry
     convergence threshold     =      1.0E-06
     mixing beta               =       0.1000
     number of iterations used =           10  TF        mixing
     Exchange-correlation      = SLA PW PBX PBC ( 1  4  3  4 0 0)

     celldm(1)=   9.525600  celldm(2)=   0.000000  celldm(3)=   0.000000
     celldm(4)=   0.000000  celldm(5)=   0.000000  celldm(6)=   0.000000

     crystal axes: (cart. coord. in units of alat)
               a(1) = (   1.000000   0.000000   0.000000 )  
               a(2) = (   0.000000   1.000000   0.000000 )  
               a(3) = (   0.000000   0.000000   1.000000 )  

     reciprocal axes: (cart. coord. in units 2 pi/alat)
               b(1) = (  1.000000  0.000000  0.000000 )  
               b(2) = (  0.000000  1.000000  0.000000 )  
               b(3) = (  0.000000  0.000000  1.000000 )  


     PseudoPot. # 1 for Al read from file:
     /opt/pp/Al.pbe-nl-kjpaw_psl.1.0.0.UPF
     MD5 check sum: 1b67f78b73fe58c7924490f171ce8a1e
     Pseudo is Projector augmented-wave + core cor, Zval =  3.0
     Generated using "atomic" code by A. Dal Corso v.6.3
     Shape of augmentation charge: PSQ
     Using radial grid of 1135 points,  4 beta functions with: 
                l(1) =   0
                l(2) =   0
                l(3) =   1
                l(4) =   1
     Q(r) pseudized with 0 coefficients 


     atomic species   valence    mass     pseudopotential
        Al             3.00    26.98200     Al( 1.00)

     No symmetry found



   Cartesian axes

     site n.     atom                  positions (alat units)
         1           Al  tau(   1) = (  -0.0000524   0.0000152   0.0001091  )
         2           Al  tau(   2) = (   0.5001276   0.4996954   0.0001127  )
         3           Al  tau(   3) = (   0.4998511   0.0000489   0.5004737  )
         4           Al  tau(   4) = (  -0.0000321   0.5003506   0.5002945  )
         5           Al  tau(   5) = (   0.2504101   0.2504042   0.2498092  )
         6           Al  tau(   6) = (   0.7501915   0.7497316   0.2500057  )
         7           Al  tau(   7) = (   0.2500445   0.7502467   0.7498205  )
         8           Al  tau(   8) = (   0.7500880   0.2501822   0.7503368  )

     number of k points=    14  Marzari-Vanderbilt smearing, width (Ry)=  0.0200
                       cart. coord. in units 2pi/alat
        k(    1) = (   0.1666667   0.1666667   0.1666667), wk =   0.1481481
        k(    2) = (   0.1666667   0.1666667  -0.5000000), wk =   0.1481481
        k(    3) = (   0.1666667  -0.5000000  -0.5000000), wk =   0.1481481
        k(    4) = (  -0.5000000  -0.5000000  -0.5000000), wk =   0.0740741
        k(    5) = (  -0.1666667  -0.1666667   0.1666667), wk =   0.1481481
        k(    6) = (  -0.1666667   0.1666667  -0.1666667), wk =   0.1481481
        k(    7) = (   0.1666667  -0.1666667  -0.1666667), wk =   0.1481481
        k(    8) = (  -0.1666667   0.1666667   0.5000000), wk =   0.1481481
        k(    9) = (  -0.5000000  -0.1666667   0.1666667), wk =   0.1481481
        k(   10) = (   0.5000000  -0.1666667  -0.1666667), wk =   0.1481481
        k(   11) = (  -0.1666667  -0.5000000   0.1666667), wk =   0.1481481
        k(   12) = (  -0.1666667   0.5000000  -0.1666667), wk =   0.1481481
        k(   13) = (  -0.5000000   0.1666667   0.5000000), wk =   0.1481481
        k(   14) = (  -0.5000000   0.5000000   0.1666667), wk =   0.1481481

     Dense  grid:    10395 G-vectors     FFT dimensions: (  27,  27,  27)

     Estimated max dynamical RAM per process >       9.09 MB

     Estimated total dynamical RAM >      36.36 MB

     Initial potential from superposition of free atoms

     starting charge   23.98168, renormalised to   24.00000
     Starting wfcs are   32 randomized atomic wfcs
     Checking if some PAW data can be deallocated... 

     total cpu time spent up to now is        0.7 secs

     Self-consistent Calculation

     iteration #  1     ecut=    40.00 Ry     beta= 0.10
     Davidson diagonalization with overlap
     ethr =  1.00E-02,  avg # of iterations =  2.3

     Threshold (ethr) on eigenvalues was too large:
     Diagonalizing with lowered threshold

     Davidson diagonalization with overlap
     ethr =  1.71E-04,  avg # of iterations =  2.6

     total cpu time spent up to now is        1.5 secs

     total energy              =    -314.81192633 Ry
     Harris-Foulkes estimate   =    -314.81439364 Ry
     estimated scf accuracy    <       0.03905874 Ry

     iteration #  2     ecut=    40.00 Ry     beta= 0.10
     Davidson diagonalization with overlap
     ethr =  1.63E-04,  avg # of iterations =  1.0

     total cpu time spent up to now is        1.8 secs

     total energy              =    -314.80363469 Ry
     Harris-Foulkes estimate   =    -314.81220790 Ry
     estimated scf accuracy    <       0.03393384 Ry

     iteration #  3     ecut=    40.00 Ry     beta= 0.10
     Davidson diagonalization with overlap
     ethr =  1.41E-04,  avg # of iterations =  1.0

     total cpu time spent up to now is        2.2 secs

     total energy              =    -314.80525791 Ry
     Harris-Foulkes estimate   =    -314.80575259 Ry
     estimated scf accuracy    <       0.00064722 Ry

     iteration #  4     ecut=    40.00 Ry     beta= 0.10
     Davidson diagonalization with overlap
     ethr =  2.70E-06,  avg # of iterations =  5.8

     total cpu time spent up to now is        2.9 secs

     total energy              =    -314.80525449 Ry
     Harris-Foulkes estimate   =    -314.80592270 Ry
     estimated scf accuracy    <       0.00029485 Ry

     iteration #  5     ecut=    40.00 Ry     beta= 0.10
     Davidson diagonalization with overlap
     ethr =  1.23E-06,  avg # of iterations =  1.0

     total cpu time spent up to now is        3.2 secs

     total energy              =    -314.80506531 Ry
     Harris-Foulkes estimate   =    -314.80527028 Ry
     estimated scf accuracy    <       0.00026035 Ry

     iteration #  6     ecut=    40.00 Ry     beta= 0.10
     Davidson diagonalization with overlap
     ethr =  1.08E-06,  avg # of iterations =  2.0

     total cpu time spent up to now is        3.6 secs

     total energy              =    -314.80509408 Ry
     Harris-Foulkes estimate   =    -314.80509123 Ry
     estimated scf accuracy    <       0.00001370 Ry

     iteration #  7     ecut=    40.00 Ry     beta= 0.10
     Davidson diagonalization with overlap
     ethr =  5.71E-08,  avg # of iterations =  2.9

     total cpu time spent up to now is        4.0 secs

     total energy              =    -314.80506557 Ry
     Harris-Foulkes estimate   =    -314.80509705 Ry
     estimated scf accuracy    <       0.00001232 Ry

     iteration #  8     ecut=    40.00 Ry     beta= 0.10
     Davidson diagonalization with overlap
     ethr =  5.13E-08,  avg # of iterations =  1.0

     total cpu time spent up to now is        4.3 secs

     total energy              =    -314.80504388 Ry
     Harris-Foulkes estimate   =    -314.80506584 Ry
     estimated scf accuracy    <       0.00000877 Ry

     iteration #  9     ecut=    40.00 Ry     beta= 0.10
     Davidson diagonalization with overlap
     ethr =  3.65E-08,  avg # of iterations =  2.0

     total cpu time spent up to now is        4.7 secs

     End of self-consistent calculation

          k = 0.1667 0.1667 0.1667 (  3689 PWs)   bands (ev):

    -3.0187   0.5932   0.5988   0.6032   3.6774   3.6827   3.6874   5.0194
     5.0241   5.0293   7.0184   7.0195   7.0210   7.6417   9.5841   9.5855

          k = 0.1667 0.1667-0.5000 (  3712 PWs)   bands (ev):

    -1.7889  -1.7847   1.2262   1.2268   2.5468   2.5478   5.0880   5.0883
     5.4584   5.4623   6.1792   6.1803   8.0494   8.0556   8.2120   8.2152

          k = 0.1667-0.5000-0.5000 (  3688 PWs)   bands (ev):

    -0.6199  -0.6167  -0.6146  -0.6092   3.2690   3.2722   3.2750   3.2797
     6.5392   6.5423   6.5451   6.5497   8.8824   8.8836   8.8849   8.8923

          k =-0.5000-0.5000-0.5000 (  3648 PWs)   bands (ev):

     0.0241   0.0261   0.0279   0.0301   1.4972   1.4998   1.5023   1.5034
     9.1877   9.1902   9.1922   9.1935   9.1947   9.1973   9.1986   9.2013

          k =-0.1667-0.1667 0.1667 (  3689 PWs)   bands (ev):

    -3.0187   0.5948   0.5986   0.6013   3.6807   3.6840   3.6873   5.0188
     5.0219   5.0253   7.0198   7.0207   7.0214   7.6399   9.5844   9.5866

          k =-0.1667 0.1667-0.1667 (  3689 PWs)   bands (ev):

    -3.0188   0.5964   0.5988   0.6001   3.6804   3.6826   3.6838   5.0230
     5.0246   5.0263   7.0180   7.0194   7.0210   7.6420   9.5830   9.5858

          k = 0.1667-0.1667-0.1667 (  3689 PWs)   bands (ev):

    -3.0188   0.5939   0.5990   0.6026   3.6773   3.6823   3.6859   5.0210
     5.0253   5.0295   7.0184   7.0188   7.0204   7.6426   9.5839   9.5847

          k =-0.1667 0.1667 0.5000 (  3712 PWs)   bands (ev):

    -1.7890  -1.7848   1.2254   1.2298   2.5429   2.5472   5.0887   5.0930
     5.4589   5.4633   6.1762   6.1804   8.0474   8.0519   8.2141   8.2176

          k =-0.5000-0.1667 0.1667 (  3712 PWs)   bands (ev):

    -1.7877  -1.7860   1.2261   1.2271   2.5465   2.5477   5.0880   5.0888
     5.4593   5.4616   6.1790   6.1802   8.0511   8.0534   8.2122   8.2154

          k = 0.5000-0.1667-0.1667 (  3712 PWs)   bands (ev):

    -1.7877  -1.7861   1.2262   1.2288   2.5437   2.5468   5.0894   5.0917
     5.4601   5.4619   6.1769   6.1799   8.0490   8.0508   8.2150   8.2164

          k =-0.1667-0.5000 0.1667 (  3712 PWs)   bands (ev):

    -1.7887  -1.7850   1.2255   1.2281   2.5454   2.5479   5.0876   5.0902
     5.4584   5.4627   6.1781   6.1805   8.0494   8.0540   8.2118   8.2166

          k =-0.1667 0.5000-0.1667 (  3712 PWs)   bands (ev):

    -1.7887  -1.7851   1.2257   1.2289   2.5435   2.5479   5.0887   5.0914
     5.4592   5.4626   6.1765   6.1808   8.0480   8.0529   8.2140   8.2165

          k =-0.5000 0.1667 0.5000 (  3688 PWs)   bands (ev):

    -0.6187  -0.6161  -0.6135  -0.6123   3.2707   3.2727   3.2750   3.2774
     6.5408   6.5428   6.5449   6.5477   8.8826   8.8842   8.8873   8.8891

          k =-0.5000 0.5000 0.1667 (  3688 PWs)   bands (ev):

    -0.6196  -0.6161  -0.6130  -0.6119   3.2703   3.2719   3.2756   3.2781
     6.5404   6.5420   6.5457   6.5481   8.8806   8.8847   8.8869   8.8910

     the Fermi energy is     7.1747 ev

!    total energy              =    -314.80504582 Ry
     Harris-Foulkes estimate   =    -314.80504598 Ry
     estimated scf accuracy    <       0.00000030 Ry

     total all-electron energy =     -3883.947290 Ry

     The total energy is the sum of the following terms:

     one-electron contribution =      24.70848669 Ry
     hartree contribution      =       0.76401649 Ry
     xc contribution           =     -21.50469843 Ry
     ewald contribution        =     -40.71648506 Ry
     one-center paw contrib.   =    -278.05613373 Ry
     smearing contrib. (-TS)   =      -0.00023177 Ry

     convergence has been achieved in   9 iterations

     Forces acting on atoms (cartesian axes, Ry/au):

     atom    1 type  1   force =     0.00077292    0.00010361    0.00080964
     atom    2 type  1   force =    -0.00052244    0.00280487   -0.00162244
     atom    3 type  1   force =     0.00179866    0.00062763   -0.00207983
     atom    4 type  1   force =     0.00065148   -0.00205827   -0.00036503
     atom    5 type  1   force =    -0.00196383   -0.00107717    0.00175742
     atom    6 type  1   force =    -0.00176854    0.00140201    0.00034521
     atom    7 type  1   force =     0.00037666   -0.00122816    0.00247819
     atom    8 type  1   force =     0.00065509   -0.00057452   -0.00132316

     Total force =     0.006957     Total SCF correction =     0.000320


     Computing stress (Cartesian axis) and pressure

          total   stress  (Ry/bohr**3)                   (kbar)     P=  579.67
   0.00394058   0.00001436  -0.00000645        579.68      2.11     -0.95
   0.00001436   0.00394052  -0.00001188          2.11    579.67     -1.75
  -0.00000645  -0.00001188   0.00394054         -0.95     -1.75    579.67


     Writing output data file fe_scf_fcc_2.save/

     init_run     :      0.32s CPU      0.34s WALL (       1 calls)
     electrons    :      3.89s CPU      4.02s WALL (       1 calls)
     forces       :      0.08s CPU      0.08s WALL (       1 calls)
     stress       :      0.12s CPU      0.12s WALL (       1 calls)

     Called by init_run:
     wfcinit      :      0.21s CPU      0.23s WALL (       1 calls)
     potinit      :      0.07s CPU      0.07s WALL (       1 calls)
     hinit0       :      0.04s CPU      0.04s WALL (       1 calls)

     Called by electrons:
     c_bands      :      2.88s CPU      2.99s WALL (      10 calls)
     sum_band     :      0.37s CPU      0.40s WALL (      10 calls)
     v_of_rho     :      0.03s CPU      0.03s WALL (      10 calls)
     newd         :      0.02s CPU      0.02s WALL (      10 calls)
     PAW_pot      :      0.64s CPU      0.65s WALL (      10 calls)
     mix_rho      :      0.00s CPU      0.00s WALL (      10 calls)

     Called by c_bands:
     init_us_2    :      0.06s CPU      0.06s WALL (     322 calls)
     cegterg      :      2.75s CPU      2.85s WALL (     140 calls)

     Called by sum_band:
     sum_band:bec :      0.00s CPU      0.00s WALL (     140 calls)
     addusdens    :      0.01s CPU      0.01s WALL (      10 calls)

     Called by *egterg:
     h_psi        :      1.77s CPU      1.86s WALL (     456 calls)
     s_psi        :      0.31s CPU      0.32s WALL (     456 calls)
     g_psi        :      0.01s CPU      0.01s WALL (     302 calls)
     cdiaghg      :      0.15s CPU      0.15s WALL (     428 calls)

     Called by h_psi:
     h_psi:pot    :      1.76s CPU      1.85s WALL (     456 calls)
     h_psi:calbec :      0.41s CPU      0.44s WALL (     456 calls)
     vloc_psi     :      1.04s CPU      1.09s WALL (     456 calls)
     add_vuspsi   :      0.31s CPU      0.32s WALL (     456 calls)

     General routines
     calbec       :      0.64s CPU      0.67s WALL (     666 calls)
     fft          :      0.02s CPU      0.02s WALL (     136 calls)
     ffts         :      0.00s CPU      0.00s WALL (      10 calls)
     fftw         :      1.15s CPU      1.21s WALL (   14584 calls)

     Parallel routines
     fft_scatt_xy :      0.09s CPU      0.09s WALL (   14730 calls)
     fft_scatt_yz :      0.51s CPU      0.54s WALL (   14730 calls)

     PWSCF        :      4.78s CPU      4.95s WALL


   This run was terminated on:   4:42: 2  19Mar2020            

=------------------------------------------------------------------------------=
   JOB DONE.
=------------------------------------------------------------------------------=
