
     Program PWSCF v.6.4.1 starts on 19Mar2020 at  4:43:56 

     This program is part of the open-source Quantum ESPRESSO suite
     for quantum simulation of materials; please cite
         "P. Giannozzi et al., J. Phys.:Condens. Matter 21 395502 (2009);
         "P. Giannozzi et al., J. Phys.:Condens. Matter 29 465901 (2017);
          URL http://www.quantum-espresso.org", 
     in publications or presentations arising from this work. More details at
     http://www.quantum-espresso.org/quote

     Parallel version (MPI), running on     4 processors

     MPI processes distributed on     1 nodes
     R & G space division:  proc/nbgrp/npool/nimage =       4
     Reading input from wd/ecut/file_000047.in
Warning: card &IONS ignored
Warning: card ION_DYNAMICS = 'BFGS', ignored
Warning: card / ignored
Warning: card &CELL ignored
Warning: card CELL_DYNAMICS = 'BFGS', ignored
Warning: card CELL_FACTOR = 2.0, ignored
Warning: card PRESS = 0.0, ignored
Warning: card / ignored

     Current dimensions of program PWSCF are:
     Max number of different atomic species (ntypx) = 10
     Max number of k-points (npk) =  40000
     Max angular momentum in pseudopotentials (lmaxx) =  3
               file Al.pbe-nl-kjpaw_psl.1.0.0.UPF: wavefunction(s)  3S 3P renormalized

     Subspace diagonalization in iterative solution of the eigenvalue problem:
     a serial algorithm will be used


     Parallelization info
     --------------------
     sticks:   dense  smooth     PW     G-vecs:    dense   smooth      PW
     Min         217     217     93                 4803     4803    1393
     Max         218     218     95                 4804     4804    1396
     Sum         869     869    377                19213    19213    5575



     bravais-lattice index     =            0
     lattice parameter (alat)  =       9.5256  a.u.
     unit-cell volume          =     864.3249 (a.u.)^3
     number of atoms/cell      =            8
     number of atomic types    =            1
     number of electrons       =        24.00
     number of Kohn-Sham states=           16
     kinetic-energy cutoff     =      45.0000  Ry
     charge density cutoff     =     120.0000  Ry
     convergence threshold     =      1.0E-06
     mixing beta               =       0.1000
     number of iterations used =           10  TF        mixing
     Exchange-correlation      = SLA PW PBX PBC ( 1  4  3  4 0 0)

     celldm(1)=   9.525600  celldm(2)=   0.000000  celldm(3)=   0.000000
     celldm(4)=   0.000000  celldm(5)=   0.000000  celldm(6)=   0.000000

     crystal axes: (cart. coord. in units of alat)
               a(1) = (   1.000000   0.000000   0.000000 )  
               a(2) = (   0.000000   1.000000   0.000000 )  
               a(3) = (   0.000000   0.000000   1.000000 )  

     reciprocal axes: (cart. coord. in units 2 pi/alat)
               b(1) = (  1.000000  0.000000  0.000000 )  
               b(2) = (  0.000000  1.000000  0.000000 )  
               b(3) = (  0.000000  0.000000  1.000000 )  


     PseudoPot. # 1 for Al read from file:
     /opt/pp/Al.pbe-nl-kjpaw_psl.1.0.0.UPF
     MD5 check sum: 1b67f78b73fe58c7924490f171ce8a1e
     Pseudo is Projector augmented-wave + core cor, Zval =  3.0
     Generated using "atomic" code by A. Dal Corso v.6.3
     Shape of augmentation charge: PSQ
     Using radial grid of 1135 points,  4 beta functions with: 
                l(1) =   0
                l(2) =   0
                l(3) =   1
                l(4) =   1
     Q(r) pseudized with 0 coefficients 


     atomic species   valence    mass     pseudopotential
        Al             3.00    26.98200     Al( 1.00)

     No symmetry found



   Cartesian axes

     site n.     atom                  positions (alat units)
         1           Al  tau(   1) = (  -0.0000524   0.0000152   0.0001091  )
         2           Al  tau(   2) = (   0.5001276   0.4996954   0.0001127  )
         3           Al  tau(   3) = (   0.4998511   0.0000489   0.5004737  )
         4           Al  tau(   4) = (  -0.0000321   0.5003506   0.5002945  )
         5           Al  tau(   5) = (   0.2504101   0.2504042   0.2498092  )
         6           Al  tau(   6) = (   0.7501915   0.7497316   0.2500057  )
         7           Al  tau(   7) = (   0.2500445   0.7502467   0.7498205  )
         8           Al  tau(   8) = (   0.7500880   0.2501822   0.7503368  )

     number of k points=    14  Marzari-Vanderbilt smearing, width (Ry)=  0.0200
                       cart. coord. in units 2pi/alat
        k(    1) = (   0.1666667   0.1666667   0.1666667), wk =   0.1481481
        k(    2) = (   0.1666667   0.1666667  -0.5000000), wk =   0.1481481
        k(    3) = (   0.1666667  -0.5000000  -0.5000000), wk =   0.1481481
        k(    4) = (  -0.5000000  -0.5000000  -0.5000000), wk =   0.0740741
        k(    5) = (  -0.1666667  -0.1666667   0.1666667), wk =   0.1481481
        k(    6) = (  -0.1666667   0.1666667  -0.1666667), wk =   0.1481481
        k(    7) = (   0.1666667  -0.1666667  -0.1666667), wk =   0.1481481
        k(    8) = (  -0.1666667   0.1666667   0.5000000), wk =   0.1481481
        k(    9) = (  -0.5000000  -0.1666667   0.1666667), wk =   0.1481481
        k(   10) = (   0.5000000  -0.1666667  -0.1666667), wk =   0.1481481
        k(   11) = (  -0.1666667  -0.5000000   0.1666667), wk =   0.1481481
        k(   12) = (  -0.1666667   0.5000000  -0.1666667), wk =   0.1481481
        k(   13) = (  -0.5000000   0.1666667   0.5000000), wk =   0.1481481
        k(   14) = (  -0.5000000   0.5000000   0.1666667), wk =   0.1481481

     Dense  grid:    19213 G-vectors     FFT dimensions: (  36,  36,  36)

     Estimated max dynamical RAM per process >      13.39 MB

     Estimated total dynamical RAM >      53.54 MB

     Initial potential from superposition of free atoms

     starting charge   23.98168, renormalised to   24.00000
     Starting wfcs are   32 randomized atomic wfcs
     Checking if some PAW data can be deallocated... 

     total cpu time spent up to now is        0.8 secs

     Self-consistent Calculation

     iteration #  1     ecut=    45.00 Ry     beta= 0.10
     Davidson diagonalization with overlap
     ethr =  1.00E-02,  avg # of iterations =  2.3

     Threshold (ethr) on eigenvalues was too large:
     Diagonalizing with lowered threshold

     Davidson diagonalization with overlap
     ethr =  1.72E-04,  avg # of iterations =  2.6

     total cpu time spent up to now is        1.9 secs

     total energy              =    -314.81206812 Ry
     Harris-Foulkes estimate   =    -314.81453006 Ry
     estimated scf accuracy    <       0.03906903 Ry

     iteration #  2     ecut=    45.00 Ry     beta= 0.10
     Davidson diagonalization with overlap
     ethr =  1.63E-04,  avg # of iterations =  1.0

     total cpu time spent up to now is        2.3 secs

     total energy              =    -314.80378869 Ry
     Harris-Foulkes estimate   =    -314.81233460 Ry
     estimated scf accuracy    <       0.03395541 Ry

     iteration #  3     ecut=    45.00 Ry     beta= 0.10
     Davidson diagonalization with overlap
     ethr =  1.41E-04,  avg # of iterations =  1.0

     total cpu time spent up to now is        2.7 secs

     total energy              =    -314.80538742 Ry
     Harris-Foulkes estimate   =    -314.80590803 Ry
     estimated scf accuracy    <       0.00065539 Ry

     iteration #  4     ecut=    45.00 Ry     beta= 0.10
     Davidson diagonalization with overlap
     ethr =  2.73E-06,  avg # of iterations =  6.3

     total cpu time spent up to now is        3.6 secs

     total energy              =    -314.80537864 Ry
     Harris-Foulkes estimate   =    -314.80603971 Ry
     estimated scf accuracy    <       0.00029422 Ry

     iteration #  5     ecut=    45.00 Ry     beta= 0.10
     Davidson diagonalization with overlap
     ethr =  1.23E-06,  avg # of iterations =  1.0

     total cpu time spent up to now is        4.0 secs

     total energy              =    -314.80519419 Ry
     Harris-Foulkes estimate   =    -314.80539428 Ry
     estimated scf accuracy    <       0.00026277 Ry

     iteration #  6     ecut=    45.00 Ry     beta= 0.10
     Davidson diagonalization with overlap
     ethr =  1.09E-06,  avg # of iterations =  2.0

     total cpu time spent up to now is        4.5 secs

     total energy              =    -314.80522201 Ry
     Harris-Foulkes estimate   =    -314.80521972 Ry
     estimated scf accuracy    <       0.00001358 Ry

     iteration #  7     ecut=    45.00 Ry     beta= 0.10
     Davidson diagonalization with overlap
     ethr =  5.66E-08,  avg # of iterations =  2.9

     total cpu time spent up to now is        5.0 secs

     total energy              =    -314.80519713 Ry
     Harris-Foulkes estimate   =    -314.80522512 Ry
     estimated scf accuracy    <       0.00001223 Ry

     iteration #  8     ecut=    45.00 Ry     beta= 0.10
     Davidson diagonalization with overlap
     ethr =  5.10E-08,  avg # of iterations =  1.0

     total cpu time spent up to now is        5.5 secs

     total energy              =    -314.80517288 Ry
     Harris-Foulkes estimate   =    -314.80519735 Ry
     estimated scf accuracy    <       0.00000925 Ry

     iteration #  9     ecut=    45.00 Ry     beta= 0.10
     Davidson diagonalization with overlap
     ethr =  3.86E-08,  avg # of iterations =  2.0

     total cpu time spent up to now is        6.0 secs

     End of self-consistent calculation

          k = 0.1667 0.1667 0.1667 (  4428 PWs)   bands (ev):

    -3.0187   0.5933   0.5987   0.6032   3.6774   3.6826   3.6874   5.0194
     5.0240   5.0293   7.0183   7.0195   7.0210   7.6417   9.5839   9.5853

          k = 0.1667 0.1667-0.5000 (  4374 PWs)   bands (ev):

    -1.7889  -1.7847   1.2263   1.2268   2.5467   2.5478   5.0879   5.0883
     5.4584   5.4622   6.1791   6.1802   8.0494   8.0556   8.2119   8.2152

          k = 0.1667-0.5000-0.5000 (  4436 PWs)   bands (ev):

    -0.6200  -0.6166  -0.6146  -0.6093   3.2689   3.2723   3.2750   3.2796
     6.5390   6.5423   6.5450   6.5496   8.8823   8.8836   8.8848   8.8923

          k =-0.5000-0.5000-0.5000 (  4416 PWs)   bands (ev):

     0.0241   0.0262   0.0279   0.0301   1.4971   1.4997   1.5023   1.5034
     9.1876   9.1902   9.1921   9.1934   9.1947   9.1971   9.1986   9.2012

          k =-0.1667-0.1667 0.1667 (  4428 PWs)   bands (ev):

    -3.0187   0.5948   0.5985   0.6013   3.6807   3.6840   3.6872   5.0188
     5.0219   5.0253   7.0198   7.0207   7.0214   7.6398   9.5842   9.5863

          k =-0.1667 0.1667-0.1667 (  4428 PWs)   bands (ev):

    -3.0187   0.5964   0.5988   0.6001   3.6804   3.6825   3.6838   5.0229
     5.0245   5.0262   7.0179   7.0194   7.0210   7.6419   9.5829   9.5857

          k = 0.1667-0.1667-0.1667 (  4428 PWs)   bands (ev):

    -3.0187   0.5939   0.5990   0.6026   3.6773   3.6822   3.6858   5.0210
     5.0253   5.0294   7.0183   7.0187   7.0203   7.6425   9.5837   9.5849

          k =-0.1667 0.1667 0.5000 (  4374 PWs)   bands (ev):

    -1.7890  -1.7848   1.2254   1.2299   2.5428   2.5472   5.0886   5.0929
     5.4588   5.4632   6.1761   6.1803   8.0474   8.0518   8.2141   8.2176

          k =-0.5000-0.1667 0.1667 (  4374 PWs)   bands (ev):

    -1.7877  -1.7859   1.2261   1.2271   2.5464   2.5477   5.0879   5.0888
     5.4592   5.4615   6.1790   6.1802   8.0510   8.0535   8.2121   8.2154

          k = 0.5000-0.1667-0.1667 (  4374 PWs)   bands (ev):

    -1.7877  -1.7860   1.2262   1.2289   2.5436   2.5468   5.0894   5.0917
     5.4601   5.4619   6.1768   6.1799   8.0489   8.0508   8.2149   8.2164

          k =-0.1667-0.5000 0.1667 (  4374 PWs)   bands (ev):

    -1.7886  -1.7851   1.2256   1.2281   2.5454   2.5479   5.0876   5.0901
     5.4584   5.4626   6.1780   6.1805   8.0495   8.0539   8.2118   8.2166

          k =-0.1667 0.5000-0.1667 (  4374 PWs)   bands (ev):

    -1.7886  -1.7851   1.2258   1.2289   2.5434   2.5478   5.0888   5.0913
     5.4592   5.4625   6.1765   6.1808   8.0480   8.0528   8.2139   8.2165

          k =-0.5000 0.1667 0.5000 (  4436 PWs)   bands (ev):

    -0.6188  -0.6160  -0.6135  -0.6122   3.2706   3.2727   3.2750   3.2774
     6.5407   6.5427   6.5448   6.5477   8.8826   8.8842   8.8872   8.8890

          k =-0.5000 0.5000 0.1667 (  4436 PWs)   bands (ev):

    -0.6196  -0.6160  -0.6130  -0.6119   3.2703   3.2719   3.2756   3.2780
     6.5404   6.5420   6.5457   6.5480   8.8806   8.8846   8.8868   8.8909

     the Fermi energy is     7.1747 ev

!    total energy              =    -314.80517482 Ry
     Harris-Foulkes estimate   =    -314.80517513 Ry
     estimated scf accuracy    <       0.00000047 Ry

     total all-electron energy =     -3883.947419 Ry

     The total energy is the sum of the following terms:

     one-electron contribution =      24.70880654 Ry
     hartree contribution      =       0.76404440 Ry
     xc contribution           =     -21.50503379 Ry
     ewald contribution        =     -40.71648506 Ry
     one-center paw contrib.   =    -278.05627467 Ry
     smearing contrib. (-TS)   =      -0.00023223 Ry

     convergence has been achieved in   9 iterations

     Forces acting on atoms (cartesian axes, Ry/au):

     atom    1 type  1   force =     0.00076987    0.00010387    0.00081487
     atom    2 type  1   force =    -0.00052656    0.00280009   -0.00162338
     atom    3 type  1   force =     0.00180385    0.00063736   -0.00208574
     atom    4 type  1   force =     0.00065301   -0.00206511   -0.00036452
     atom    5 type  1   force =    -0.00196486   -0.00108275    0.00175147
     atom    6 type  1   force =    -0.00177083    0.00141131    0.00033491
     atom    7 type  1   force =     0.00037808   -0.00121916    0.00248875
     atom    8 type  1   force =     0.00065743   -0.00058563   -0.00131635

     Total force =     0.006966     Total SCF correction =     0.000419


     Computing stress (Cartesian axis) and pressure

          total   stress  (Ry/bohr**3)                   (kbar)     P=  579.71
   0.00394080   0.00001435  -0.00000645        579.71      2.11     -0.95
   0.00001435   0.00394076  -0.00001187          2.11    579.71     -1.75
  -0.00000645  -0.00001187   0.00394077         -0.95     -1.75    579.71


     Writing output data file fe_scf_fcc_2.save/

     init_run     :      0.41s CPU      0.44s WALL (       1 calls)
     electrons    :      5.11s CPU      5.27s WALL (       1 calls)
     forces       :      0.10s CPU      0.11s WALL (       1 calls)
     stress       :      0.16s CPU      0.16s WALL (       1 calls)

     Called by init_run:
     wfcinit      :      0.30s CPU      0.31s WALL (       1 calls)
     potinit      :      0.07s CPU      0.08s WALL (       1 calls)
     hinit0       :      0.04s CPU      0.04s WALL (       1 calls)

     Called by electrons:
     c_bands      :      3.88s CPU      4.01s WALL (      10 calls)
     sum_band     :      0.59s CPU      0.60s WALL (      10 calls)
     v_of_rho     :      0.06s CPU      0.06s WALL (      10 calls)
     newd         :      0.04s CPU      0.04s WALL (      10 calls)
     PAW_pot      :      0.61s CPU      0.62s WALL (      10 calls)
     mix_rho      :      0.01s CPU      0.01s WALL (      10 calls)

     Called by c_bands:
     init_us_2    :      0.07s CPU      0.07s WALL (     322 calls)
     cegterg      :      3.73s CPU      3.86s WALL (     140 calls)

     Called by sum_band:
     sum_band:bec :      0.00s CPU      0.00s WALL (     140 calls)
     addusdens    :      0.03s CPU      0.03s WALL (      10 calls)

     Called by *egterg:
     h_psi        :      2.66s CPU      2.79s WALL (     463 calls)
     s_psi        :      0.37s CPU      0.38s WALL (     463 calls)
     g_psi        :      0.01s CPU      0.01s WALL (     309 calls)
     cdiaghg      :      0.15s CPU      0.15s WALL (     435 calls)

     Called by h_psi:
     h_psi:pot    :      2.65s CPU      2.78s WALL (     463 calls)
     h_psi:calbec :      0.48s CPU      0.51s WALL (     463 calls)
     vloc_psi     :      1.82s CPU      1.89s WALL (     463 calls)
     add_vuspsi   :      0.36s CPU      0.37s WALL (     463 calls)

     General routines
     calbec       :      0.75s CPU      0.79s WALL (     673 calls)
     fft          :      0.03s CPU      0.03s WALL (     136 calls)
     ffts         :      0.00s CPU      0.00s WALL (      10 calls)
     fftw         :      2.04s CPU      2.12s WALL (   14602 calls)

     Parallel routines
     fft_scatt_xy :      0.16s CPU      0.17s WALL (   14748 calls)
     fft_scatt_yz :      0.65s CPU      0.68s WALL (   14748 calls)

     PWSCF        :      6.14s CPU      6.33s WALL


   This run was terminated on:   4:44: 2  19Mar2020            

=------------------------------------------------------------------------------=
   JOB DONE.
=------------------------------------------------------------------------------=
