
     Program PWSCF v.6.4.1 starts on 19Mar2020 at  4:42: 8 

     This program is part of the open-source Quantum ESPRESSO suite
     for quantum simulation of materials; please cite
         "P. Giannozzi et al., J. Phys.:Condens. Matter 21 395502 (2009);
         "P. Giannozzi et al., J. Phys.:Condens. Matter 29 465901 (2017);
          URL http://www.quantum-espresso.org", 
     in publications or presentations arising from this work. More details at
     http://www.quantum-espresso.org/quote

     Parallel version (MPI), running on     4 processors

     MPI processes distributed on     1 nodes
     R & G space division:  proc/nbgrp/npool/nimage =       4
     Reading input from wd/ecut/file_000025.in
Warning: card &IONS ignored
Warning: card ION_DYNAMICS = 'BFGS', ignored
Warning: card / ignored
Warning: card &CELL ignored
Warning: card CELL_DYNAMICS = 'BFGS', ignored
Warning: card CELL_FACTOR = 2.0, ignored
Warning: card PRESS = 0.0, ignored
Warning: card / ignored

     Current dimensions of program PWSCF are:
     Max number of different atomic species (ntypx) = 10
     Max number of k-points (npk) =  40000
     Max angular momentum in pseudopotentials (lmaxx) =  3
               file Al.pbe-nl-kjpaw_psl.1.0.0.UPF: wavefunction(s)  3S 3P renormalized

     Subspace diagonalization in iterative solution of the eigenvalue problem:
     a serial algorithm will be used


     Parallelization info
     --------------------
     sticks:   dense  smooth     PW     G-vecs:    dense   smooth      PW
     Min         152     152     82                 2863     2863    1114
     Max         153     153     84                 2866     2866    1115
     Sum         609     609    333                11459    11459    4457



     bravais-lattice index     =            0
     lattice parameter (alat)  =       9.5256  a.u.
     unit-cell volume          =     864.3249 (a.u.)^3
     number of atoms/cell      =            8
     number of atomic types    =            1
     number of electrons       =        24.00
     number of Kohn-Sham states=           16
     kinetic-energy cutoff     =      38.0000  Ry
     charge density cutoff     =      85.0000  Ry
     convergence threshold     =      1.0E-06
     mixing beta               =       0.1000
     number of iterations used =           10  TF        mixing
     Exchange-correlation      = SLA PW PBX PBC ( 1  4  3  4 0 0)

     celldm(1)=   9.525600  celldm(2)=   0.000000  celldm(3)=   0.000000
     celldm(4)=   0.000000  celldm(5)=   0.000000  celldm(6)=   0.000000

     crystal axes: (cart. coord. in units of alat)
               a(1) = (   1.000000   0.000000   0.000000 )  
               a(2) = (   0.000000   1.000000   0.000000 )  
               a(3) = (   0.000000   0.000000   1.000000 )  

     reciprocal axes: (cart. coord. in units 2 pi/alat)
               b(1) = (  1.000000  0.000000  0.000000 )  
               b(2) = (  0.000000  1.000000  0.000000 )  
               b(3) = (  0.000000  0.000000  1.000000 )  


     PseudoPot. # 1 for Al read from file:
     /opt/pp/Al.pbe-nl-kjpaw_psl.1.0.0.UPF
     MD5 check sum: 1b67f78b73fe58c7924490f171ce8a1e
     Pseudo is Projector augmented-wave + core cor, Zval =  3.0
     Generated using "atomic" code by A. Dal Corso v.6.3
     Shape of augmentation charge: PSQ
     Using radial grid of 1135 points,  4 beta functions with: 
                l(1) =   0
                l(2) =   0
                l(3) =   1
                l(4) =   1
     Q(r) pseudized with 0 coefficients 


     atomic species   valence    mass     pseudopotential
        Al             3.00    26.98200     Al( 1.00)

     No symmetry found



   Cartesian axes

     site n.     atom                  positions (alat units)
         1           Al  tau(   1) = (  -0.0000524   0.0000152   0.0001091  )
         2           Al  tau(   2) = (   0.5001276   0.4996954   0.0001127  )
         3           Al  tau(   3) = (   0.4998511   0.0000489   0.5004737  )
         4           Al  tau(   4) = (  -0.0000321   0.5003506   0.5002945  )
         5           Al  tau(   5) = (   0.2504101   0.2504042   0.2498092  )
         6           Al  tau(   6) = (   0.7501915   0.7497316   0.2500057  )
         7           Al  tau(   7) = (   0.2500445   0.7502467   0.7498205  )
         8           Al  tau(   8) = (   0.7500880   0.2501822   0.7503368  )

     number of k points=    14  Marzari-Vanderbilt smearing, width (Ry)=  0.0200
                       cart. coord. in units 2pi/alat
        k(    1) = (   0.1666667   0.1666667   0.1666667), wk =   0.1481481
        k(    2) = (   0.1666667   0.1666667  -0.5000000), wk =   0.1481481
        k(    3) = (   0.1666667  -0.5000000  -0.5000000), wk =   0.1481481
        k(    4) = (  -0.5000000  -0.5000000  -0.5000000), wk =   0.0740741
        k(    5) = (  -0.1666667  -0.1666667   0.1666667), wk =   0.1481481
        k(    6) = (  -0.1666667   0.1666667  -0.1666667), wk =   0.1481481
        k(    7) = (   0.1666667  -0.1666667  -0.1666667), wk =   0.1481481
        k(    8) = (  -0.1666667   0.1666667   0.5000000), wk =   0.1481481
        k(    9) = (  -0.5000000  -0.1666667   0.1666667), wk =   0.1481481
        k(   10) = (   0.5000000  -0.1666667  -0.1666667), wk =   0.1481481
        k(   11) = (  -0.1666667  -0.5000000   0.1666667), wk =   0.1481481
        k(   12) = (  -0.1666667   0.5000000  -0.1666667), wk =   0.1481481
        k(   13) = (  -0.5000000   0.1666667   0.5000000), wk =   0.1481481
        k(   14) = (  -0.5000000   0.5000000   0.1666667), wk =   0.1481481

     Dense  grid:    11459 G-vectors     FFT dimensions: (  27,  27,  27)

     Estimated max dynamical RAM per process >       8.87 MB

     Estimated total dynamical RAM >      35.47 MB

     Initial potential from superposition of free atoms

     starting charge   23.98168, renormalised to   24.00000
     Starting wfcs are   32 randomized atomic wfcs
     Checking if some PAW data can be deallocated... 

     total cpu time spent up to now is        0.6 secs

     Self-consistent Calculation

     iteration #  1     ecut=    38.00 Ry     beta= 0.10
     Davidson diagonalization with overlap
     ethr =  1.00E-02,  avg # of iterations =  2.2

     Threshold (ethr) on eigenvalues was too large:
     Diagonalizing with lowered threshold

     Davidson diagonalization with overlap
     ethr =  1.73E-04,  avg # of iterations =  2.6

     total cpu time spent up to now is        1.4 secs

     total energy              =    -314.81186264 Ry
     Harris-Foulkes estimate   =    -314.81433167 Ry
     estimated scf accuracy    <       0.03904539 Ry

     iteration #  2     ecut=    38.00 Ry     beta= 0.10
     Davidson diagonalization with overlap
     ethr =  1.63E-04,  avg # of iterations =  1.0

     total cpu time spent up to now is        1.7 secs

     total energy              =    -314.80356080 Ry
     Harris-Foulkes estimate   =    -314.81213686 Ry
     estimated scf accuracy    <       0.03393452 Ry

     iteration #  3     ecut=    38.00 Ry     beta= 0.10
     Davidson diagonalization with overlap
     ethr =  1.41E-04,  avg # of iterations =  1.0

     total cpu time spent up to now is        2.0 secs

     total energy              =    -314.80516831 Ry
     Harris-Foulkes estimate   =    -314.80568631 Ry
     estimated scf accuracy    <       0.00065567 Ry

     iteration #  4     ecut=    38.00 Ry     beta= 0.10
     Davidson diagonalization with overlap
     ethr =  2.73E-06,  avg # of iterations =  6.0

     total cpu time spent up to now is        2.7 secs

     total energy              =    -314.80516851 Ry
     Harris-Foulkes estimate   =    -314.80583422 Ry
     estimated scf accuracy    <       0.00029504 Ry

     iteration #  5     ecut=    38.00 Ry     beta= 0.10
     Davidson diagonalization with overlap
     ethr =  1.23E-06,  avg # of iterations =  1.0

     total cpu time spent up to now is        3.0 secs

     total energy              =    -314.80497577 Ry
     Harris-Foulkes estimate   =    -314.80518422 Ry
     estimated scf accuracy    <       0.00026180 Ry

     iteration #  6     ecut=    38.00 Ry     beta= 0.10
     Davidson diagonalization with overlap
     ethr =  1.09E-06,  avg # of iterations =  2.0

     total cpu time spent up to now is        3.4 secs

     total energy              =    -314.80500432 Ry
     Harris-Foulkes estimate   =    -314.80500140 Ry
     estimated scf accuracy    <       0.00001395 Ry

     iteration #  7     ecut=    38.00 Ry     beta= 0.10
     Davidson diagonalization with overlap
     ethr =  5.81E-08,  avg # of iterations =  2.9

     total cpu time spent up to now is        3.8 secs

     total energy              =    -314.80497630 Ry
     Harris-Foulkes estimate   =    -314.80500737 Ry
     estimated scf accuracy    <       0.00001251 Ry

     iteration #  8     ecut=    38.00 Ry     beta= 0.10
     Davidson diagonalization with overlap
     ethr =  5.21E-08,  avg # of iterations =  1.0

     total cpu time spent up to now is        4.2 secs

     total energy              =    -314.80495706 Ry
     Harris-Foulkes estimate   =    -314.80497659 Ry
     estimated scf accuracy    <       0.00000878 Ry

     iteration #  9     ecut=    38.00 Ry     beta= 0.10
     Davidson diagonalization with overlap
     ethr =  3.66E-08,  avg # of iterations =  2.0

     total cpu time spent up to now is        4.6 secs

     End of self-consistent calculation

          k = 0.1667 0.1667 0.1667 (  3410 PWs)   bands (ev):

    -3.0186   0.5933   0.5989   0.6033   3.6775   3.6828   3.6876   5.0194
     5.0242   5.0294   7.0185   7.0195   7.0211   7.6418   9.5843   9.5857

          k = 0.1667 0.1667-0.5000 (  3418 PWs)   bands (ev):

    -1.7888  -1.7846   1.2264   1.2269   2.5468   2.5479   5.0880   5.0884
     5.4585   5.4624   6.1792   6.1804   8.0495   8.0557   8.2121   8.2154

          k = 0.1667-0.5000-0.5000 (  3432 PWs)   bands (ev):

    -0.6198  -0.6167  -0.6145  -0.6091   3.2690   3.2722   3.2751   3.2798
     6.5392   6.5423   6.5452   6.5498   8.8825   8.8837   8.8850   8.8924

          k =-0.5000-0.5000-0.5000 (  3448 PWs)   bands (ev):

     0.0243   0.0262   0.0280   0.0302   1.4972   1.4998   1.5024   1.5034
     9.1878   9.1903   9.1922   9.1936   9.1948   9.1973   9.1987   9.2013

          k =-0.1667-0.1667 0.1667 (  3410 PWs)   bands (ev):

    -3.0186   0.5949   0.5987   0.6014   3.6808   3.6842   3.6874   5.0189
     5.0220   5.0254   7.0199   7.0208   7.0215   7.6399   9.5845   9.5868

          k =-0.1667 0.1667-0.1667 (  3410 PWs)   bands (ev):

    -3.0187   0.5965   0.5989   0.6002   3.6805   3.6827   3.6840   5.0230
     5.0246   5.0263   7.0181   7.0195   7.0211   7.6421   9.5831   9.5846

          k = 0.1667-0.1667-0.1667 (  3410 PWs)   bands (ev):

    -3.0187   0.5940   0.5992   0.6027   3.6775   3.6824   3.6860   5.0211
     5.0254   5.0295   7.0185   7.0188   7.0204   7.6426   9.5841   9.5852

          k =-0.1667 0.1667 0.5000 (  3418 PWs)   bands (ev):

    -1.7889  -1.7847   1.2255   1.2299   2.5430   2.5473   5.0888   5.0930
     5.4590   5.4633   6.1762   6.1804   8.0475   8.0520   8.2143   8.2178

          k =-0.5000-0.1667 0.1667 (  3418 PWs)   bands (ev):

    -1.7875  -1.7859   1.2263   1.2272   2.5465   2.5478   5.0881   5.0889
     5.4593   5.4616   6.1791   6.1803   8.0512   8.0535   8.2123   8.2155

          k = 0.5000-0.1667-0.1667 (  3418 PWs)   bands (ev):

    -1.7876  -1.7860   1.2264   1.2289   2.5438   2.5469   5.0896   5.0917
     5.4602   5.4620   6.1770   6.1800   8.0491   8.0508   8.2151   8.2166

          k =-0.1667-0.5000 0.1667 (  3418 PWs)   bands (ev):

    -1.7886  -1.7849   1.2257   1.2283   2.5455   2.5480   5.0877   5.0903
     5.4585   5.4628   6.1781   6.1806   8.0495   8.0541   8.2120   8.2168

          k =-0.1667 0.5000-0.1667 (  3418 PWs)   bands (ev):

    -1.7886  -1.7849   1.2258   1.2291   2.5436   2.5479   5.0888   5.0915
     5.4592   5.4627   6.1766   6.1809   8.0481   8.0529   8.2141   8.2167

          k =-0.5000 0.1667 0.5000 (  3432 PWs)   bands (ev):

    -0.6186  -0.6160  -0.6134  -0.6122   3.2708   3.2728   3.2751   3.2775
     6.5409   6.5428   6.5450   6.5478   8.8827   8.8843   8.8874   8.8892

          k =-0.5000 0.5000 0.1667 (  3432 PWs)   bands (ev):

    -0.6194  -0.6160  -0.6129  -0.6118   3.2704   3.2719   3.2757   3.2781
     6.5405   6.5421   6.5458   6.5481   8.8807   8.8848   8.8871   8.8911

     the Fermi energy is     7.1748 ev

!    total energy              =    -314.80495897 Ry
     Harris-Foulkes estimate   =    -314.80495910 Ry
     estimated scf accuracy    <       0.00000026 Ry

     total all-electron energy =     -3883.947203 Ry

     The total energy is the sum of the following terms:

     one-electron contribution =      24.70874472 Ry
     hartree contribution      =       0.76399871 Ry
     xc contribution           =     -21.50476065 Ry
     ewald contribution        =     -40.71648545 Ry
     one-center paw contrib.   =    -278.05622449 Ry
     smearing contrib. (-TS)   =      -0.00023181 Ry

     convergence has been achieved in   9 iterations

     Forces acting on atoms (cartesian axes, Ry/au):

     atom    1 type  1   force =     0.00077263    0.00010457    0.00080882
     atom    2 type  1   force =    -0.00052269    0.00280485   -0.00162501
     atom    3 type  1   force =     0.00179973    0.00062955   -0.00207952
     atom    4 type  1   force =     0.00065091   -0.00205962   -0.00036506
     atom    5 type  1   force =    -0.00196385   -0.00107557    0.00176235
     atom    6 type  1   force =    -0.00176853    0.00139923    0.00035001
     atom    7 type  1   force =     0.00037680   -0.00122990    0.00247516
     atom    8 type  1   force =     0.00065501   -0.00057312   -0.00132675

     Total force =     0.006959     Total SCF correction =     0.000291


     Computing stress (Cartesian axis) and pressure

          total   stress  (Ry/bohr**3)                   (kbar)     P=  579.52
   0.00393953   0.00001438  -0.00000646        579.52      2.12     -0.95
   0.00001438   0.00393948  -0.00001188          2.12    579.52     -1.75
  -0.00000646  -0.00001188   0.00393949         -0.95     -1.75    579.52


     Writing output data file fe_scf_fcc_2.save/

     init_run     :      0.32s CPU      0.32s WALL (       1 calls)
     electrons    :      3.79s CPU      3.98s WALL (       1 calls)
     forces       :      0.08s CPU      0.08s WALL (       1 calls)
     stress       :      0.12s CPU      0.12s WALL (       1 calls)

     Called by init_run:
     wfcinit      :      0.21s CPU      0.21s WALL (       1 calls)
     potinit      :      0.07s CPU      0.07s WALL (       1 calls)
     hinit0       :      0.04s CPU      0.04s WALL (       1 calls)

     Called by electrons:
     c_bands      :      2.82s CPU      2.96s WALL (      10 calls)
     sum_band     :      0.37s CPU      0.40s WALL (      10 calls)
     v_of_rho     :      0.02s CPU      0.03s WALL (      10 calls)
     newd         :      0.02s CPU      0.02s WALL (      10 calls)
     PAW_pot      :      0.62s CPU      0.63s WALL (      10 calls)
     mix_rho      :      0.00s CPU      0.00s WALL (      10 calls)

     Called by c_bands:
     init_us_2    :      0.06s CPU      0.06s WALL (     322 calls)
     cegterg      :      2.69s CPU      2.83s WALL (     140 calls)

     Called by sum_band:
     sum_band:bec :      0.00s CPU      0.00s WALL (     140 calls)
     addusdens    :      0.01s CPU      0.01s WALL (      10 calls)

     Called by *egterg:
     h_psi        :      1.76s CPU      1.85s WALL (     459 calls)
     s_psi        :      0.28s CPU      0.30s WALL (     459 calls)
     g_psi        :      0.01s CPU      0.01s WALL (     305 calls)
     cdiaghg      :      0.15s CPU      0.15s WALL (     431 calls)

     Called by h_psi:
     h_psi:pot    :      1.75s CPU      1.84s WALL (     459 calls)
     h_psi:calbec :      0.40s CPU      0.43s WALL (     459 calls)
     vloc_psi     :      1.07s CPU      1.11s WALL (     459 calls)
     add_vuspsi   :      0.28s CPU      0.30s WALL (     459 calls)

     General routines
     calbec       :      0.62s CPU      0.66s WALL (     669 calls)
     fft          :      0.02s CPU      0.02s WALL (     136 calls)
     ffts         :      0.00s CPU      0.00s WALL (      10 calls)
     fftw         :      1.19s CPU      1.25s WALL (   14568 calls)

     Parallel routines
     fft_scatt_xy :      0.09s CPU      0.10s WALL (   14714 calls)
     fft_scatt_yz :      0.53s CPU      0.56s WALL (   14714 calls)

     PWSCF        :      4.65s CPU      4.85s WALL


   This run was terminated on:   4:42:13  19Mar2020            

=------------------------------------------------------------------------------=
   JOB DONE.
=------------------------------------------------------------------------------=
