
     Program PWSCF v.6.4.1 starts on 19Mar2020 at  4:42:13 

     This program is part of the open-source Quantum ESPRESSO suite
     for quantum simulation of materials; please cite
         "P. Giannozzi et al., J. Phys.:Condens. Matter 21 395502 (2009);
         "P. Giannozzi et al., J. Phys.:Condens. Matter 29 465901 (2017);
          URL http://www.quantum-espresso.org", 
     in publications or presentations arising from this work. More details at
     http://www.quantum-espresso.org/quote

     Parallel version (MPI), running on     4 processors

     MPI processes distributed on     1 nodes
     R & G space division:  proc/nbgrp/npool/nimage =       4
     Reading input from wd/ecut/file_000026.in
Warning: card &IONS ignored
Warning: card ION_DYNAMICS = 'BFGS', ignored
Warning: card / ignored
Warning: card &CELL ignored
Warning: card CELL_DYNAMICS = 'BFGS', ignored
Warning: card CELL_FACTOR = 2.0, ignored
Warning: card PRESS = 0.0, ignored
Warning: card / ignored

     Current dimensions of program PWSCF are:
     Max number of different atomic species (ntypx) = 10
     Max number of k-points (npk) =  40000
     Max angular momentum in pseudopotentials (lmaxx) =  3
               file Al.pbe-nl-kjpaw_psl.1.0.0.UPF: wavefunction(s)  3S 3P renormalized

     Subspace diagonalization in iterative solution of the eigenvalue problem:
     a serial algorithm will be used


     Parallelization info
     --------------------
     sticks:   dense  smooth     PW     G-vecs:    dense   smooth      PW
     Min         152     152     80                 2864     2864    1084
     Max         153     153     82                 2866     2866    1085
     Sum         609     609    325                11459    11459    4337



     bravais-lattice index     =            0
     lattice parameter (alat)  =       9.5256  a.u.
     unit-cell volume          =     864.3249 (a.u.)^3
     number of atoms/cell      =            8
     number of atomic types    =            1
     number of electrons       =        24.00
     number of Kohn-Sham states=           16
     kinetic-energy cutoff     =      37.0000  Ry
     charge density cutoff     =      85.0000  Ry
     convergence threshold     =      1.0E-06
     mixing beta               =       0.1000
     number of iterations used =           10  TF        mixing
     Exchange-correlation      = SLA PW PBX PBC ( 1  4  3  4 0 0)

     celldm(1)=   9.525600  celldm(2)=   0.000000  celldm(3)=   0.000000
     celldm(4)=   0.000000  celldm(5)=   0.000000  celldm(6)=   0.000000

     crystal axes: (cart. coord. in units of alat)
               a(1) = (   1.000000   0.000000   0.000000 )  
               a(2) = (   0.000000   1.000000   0.000000 )  
               a(3) = (   0.000000   0.000000   1.000000 )  

     reciprocal axes: (cart. coord. in units 2 pi/alat)
               b(1) = (  1.000000  0.000000  0.000000 )  
               b(2) = (  0.000000  1.000000  0.000000 )  
               b(3) = (  0.000000  0.000000  1.000000 )  


     PseudoPot. # 1 for Al read from file:
     /opt/pp/Al.pbe-nl-kjpaw_psl.1.0.0.UPF
     MD5 check sum: 1b67f78b73fe58c7924490f171ce8a1e
     Pseudo is Projector augmented-wave + core cor, Zval =  3.0
     Generated using "atomic" code by A. Dal Corso v.6.3
     Shape of augmentation charge: PSQ
     Using radial grid of 1135 points,  4 beta functions with: 
                l(1) =   0
                l(2) =   0
                l(3) =   1
                l(4) =   1
     Q(r) pseudized with 0 coefficients 


     atomic species   valence    mass     pseudopotential
        Al             3.00    26.98200     Al( 1.00)

     No symmetry found



   Cartesian axes

     site n.     atom                  positions (alat units)
         1           Al  tau(   1) = (  -0.0000524   0.0000152   0.0001091  )
         2           Al  tau(   2) = (   0.5001276   0.4996954   0.0001127  )
         3           Al  tau(   3) = (   0.4998511   0.0000489   0.5004737  )
         4           Al  tau(   4) = (  -0.0000321   0.5003506   0.5002945  )
         5           Al  tau(   5) = (   0.2504101   0.2504042   0.2498092  )
         6           Al  tau(   6) = (   0.7501915   0.7497316   0.2500057  )
         7           Al  tau(   7) = (   0.2500445   0.7502467   0.7498205  )
         8           Al  tau(   8) = (   0.7500880   0.2501822   0.7503368  )

     number of k points=    14  Marzari-Vanderbilt smearing, width (Ry)=  0.0200
                       cart. coord. in units 2pi/alat
        k(    1) = (   0.1666667   0.1666667   0.1666667), wk =   0.1481481
        k(    2) = (   0.1666667   0.1666667  -0.5000000), wk =   0.1481481
        k(    3) = (   0.1666667  -0.5000000  -0.5000000), wk =   0.1481481
        k(    4) = (  -0.5000000  -0.5000000  -0.5000000), wk =   0.0740741
        k(    5) = (  -0.1666667  -0.1666667   0.1666667), wk =   0.1481481
        k(    6) = (  -0.1666667   0.1666667  -0.1666667), wk =   0.1481481
        k(    7) = (   0.1666667  -0.1666667  -0.1666667), wk =   0.1481481
        k(    8) = (  -0.1666667   0.1666667   0.5000000), wk =   0.1481481
        k(    9) = (  -0.5000000  -0.1666667   0.1666667), wk =   0.1481481
        k(   10) = (   0.5000000  -0.1666667  -0.1666667), wk =   0.1481481
        k(   11) = (  -0.1666667  -0.5000000   0.1666667), wk =   0.1481481
        k(   12) = (  -0.1666667   0.5000000  -0.1666667), wk =   0.1481481
        k(   13) = (  -0.5000000   0.1666667   0.5000000), wk =   0.1481481
        k(   14) = (  -0.5000000   0.5000000   0.1666667), wk =   0.1481481

     Dense  grid:    11459 G-vectors     FFT dimensions: (  27,  27,  27)

     Estimated max dynamical RAM per process >       8.71 MB

     Estimated total dynamical RAM >      34.86 MB

     Initial potential from superposition of free atoms

     starting charge   23.98168, renormalised to   24.00000
     Starting wfcs are   32 randomized atomic wfcs
     Checking if some PAW data can be deallocated... 

     total cpu time spent up to now is        0.6 secs

     Self-consistent Calculation

     iteration #  1     ecut=    37.00 Ry     beta= 0.10
     Davidson diagonalization with overlap
     ethr =  1.00E-02,  avg # of iterations =  2.2

     Threshold (ethr) on eigenvalues was too large:
     Diagonalizing with lowered threshold

     Davidson diagonalization with overlap
     ethr =  1.70E-04,  avg # of iterations =  2.5

     total cpu time spent up to now is        1.4 secs

     total energy              =    -314.81183944 Ry
     Harris-Foulkes estimate   =    -314.81431084 Ry
     estimated scf accuracy    <       0.03907442 Ry

     iteration #  2     ecut=    37.00 Ry     beta= 0.10
     Davidson diagonalization with overlap
     ethr =  1.63E-04,  avg # of iterations =  1.0

     total cpu time spent up to now is        1.7 secs

     total energy              =    -314.80353683 Ry
     Harris-Foulkes estimate   =    -314.81210897 Ry
     estimated scf accuracy    <       0.03395959 Ry

     iteration #  3     ecut=    37.00 Ry     beta= 0.10
     Davidson diagonalization with overlap
     ethr =  1.41E-04,  avg # of iterations =  1.0

     total cpu time spent up to now is        2.0 secs

     total energy              =    -314.80509876 Ry
     Harris-Foulkes estimate   =    -314.80566435 Ry
     estimated scf accuracy    <       0.00066171 Ry

     iteration #  4     ecut=    37.00 Ry     beta= 0.10
     Davidson diagonalization with overlap
     ethr =  2.76E-06,  avg # of iterations =  5.9

     total cpu time spent up to now is        2.6 secs

     total energy              =    -314.80510923 Ry
     Harris-Foulkes estimate   =    -314.80575256 Ry
     estimated scf accuracy    <       0.00028687 Ry

     iteration #  5     ecut=    37.00 Ry     beta= 0.10
     Davidson diagonalization with overlap
     ethr =  1.20E-06,  avg # of iterations =  1.0

     total cpu time spent up to now is        2.9 secs

     total energy              =    -314.80493043 Ry
     Harris-Foulkes estimate   =    -314.80512417 Ry
     estimated scf accuracy    <       0.00025942 Ry

     iteration #  6     ecut=    37.00 Ry     beta= 0.10
     Davidson diagonalization with overlap
     ethr =  1.08E-06,  avg # of iterations =  1.9

     total cpu time spent up to now is        3.2 secs

     total energy              =    -314.80495694 Ry
     Harris-Foulkes estimate   =    -314.80495543 Ry
     estimated scf accuracy    <       0.00001326 Ry

     iteration #  7     ecut=    37.00 Ry     beta= 0.10
     Davidson diagonalization with overlap
     ethr =  5.52E-08,  avg # of iterations =  2.9

     total cpu time spent up to now is        3.6 secs

     total energy              =    -314.80493116 Ry
     Harris-Foulkes estimate   =    -314.80495998 Ry
     estimated scf accuracy    <       0.00001179 Ry

     iteration #  8     ecut=    37.00 Ry     beta= 0.10
     Davidson diagonalization with overlap
     ethr =  4.91E-08,  avg # of iterations =  1.0

     total cpu time spent up to now is        3.9 secs

     total energy              =    -314.80490969 Ry
     Harris-Foulkes estimate   =    -314.80493140 Ry
     estimated scf accuracy    <       0.00000846 Ry

     iteration #  9     ecut=    37.00 Ry     beta= 0.10
     Davidson diagonalization with overlap
     ethr =  3.52E-08,  avg # of iterations =  2.0

     total cpu time spent up to now is        4.3 secs

     End of self-consistent calculation

          k = 0.1667 0.1667 0.1667 (  3278 PWs)   bands (ev):

    -3.0186   0.5934   0.5989   0.6034   3.6776   3.6829   3.6876   5.0195
     5.0242   5.0295   7.0185   7.0196   7.0211   7.6419   9.5844   9.5856

          k = 0.1667 0.1667-0.5000 (  3316 PWs)   bands (ev):

    -1.7887  -1.7846   1.2265   1.2270   2.5469   2.5479   5.0881   5.0885
     5.4586   5.4624   6.1793   6.1804   8.0496   8.0558   8.2122   8.2155

          k = 0.1667-0.5000-0.5000 (  3276 PWs)   bands (ev):

    -0.6198  -0.6165  -0.6145  -0.6091   3.2691   3.2724   3.2752   3.2798
     6.5393   6.5425   6.5452   6.5498   8.8826   8.8838   8.8851   8.8925

          k =-0.5000-0.5000-0.5000 (  3328 PWs)   bands (ev):

     0.0243   0.0263   0.0280   0.0302   1.4973   1.4998   1.5024   1.5035
     9.1878   9.1904   9.1923   9.1936   9.1949   9.1974   9.1988   9.2014

          k =-0.1667-0.1667 0.1667 (  3278 PWs)   bands (ev):

    -3.0185   0.5950   0.5987   0.6015   3.6809   3.6842   3.6874   5.0190
     5.0220   5.0254   7.0199   7.0208   7.0215   7.6400   9.5846   9.5868

          k =-0.1667 0.1667-0.1667 (  3278 PWs)   bands (ev):

    -3.0186   0.5966   0.5989   0.6003   3.6806   3.6828   3.6840   5.0231
     5.0246   5.0264   7.0181   7.0196   7.0212   7.6422   9.5832   9.5855

          k = 0.1667-0.1667-0.1667 (  3278 PWs)   bands (ev):

    -3.0186   0.5941   0.5992   0.6027   3.6775   3.6825   3.6861   5.0211
     5.0254   5.0296   7.0185   7.0189   7.0205   7.6427   9.5839   9.5851

          k =-0.1667 0.1667 0.5000 (  3316 PWs)   bands (ev):

    -1.7888  -1.7846   1.2256   1.2300   2.5430   2.5473   5.0888   5.0931
     5.4590   5.4634   6.1763   6.1805   8.0476   8.0520   8.2144   8.2179

          k =-0.5000-0.1667 0.1667 (  3316 PWs)   bands (ev):

    -1.7875  -1.7858   1.2263   1.2273   2.5466   2.5478   5.0881   5.0890
     5.4594   5.4617   6.1791   6.1803   8.0512   8.0536   8.2124   8.2156

          k = 0.5000-0.1667-0.1667 (  3316 PWs)   bands (ev):

    -1.7876  -1.7858   1.2264   1.2291   2.5438   2.5469   5.0895   5.0919
     5.4603   5.4621   6.1770   6.1800   8.0491   8.0509   8.2152   8.2167

          k =-0.1667-0.5000 0.1667 (  3316 PWs)   bands (ev):

    -1.7884  -1.7849   1.2258   1.2283   2.5455   2.5480   5.0877   5.0903
     5.4586   5.4628   6.1782   6.1806   8.0496   8.0541   8.2121   8.2169

          k =-0.1667 0.5000-0.1667 (  3316 PWs)   bands (ev):

    -1.7885  -1.7849   1.2259   1.2291   2.5436   2.5480   5.0889   5.0915
     5.4594   5.4627   6.1766   6.1809   8.0482   8.0530   8.2142   8.2168

          k =-0.5000 0.1667 0.5000 (  3276 PWs)   bands (ev):

    -0.6186  -0.6158  -0.6134  -0.6121   3.2708   3.2729   3.2751   3.2776
     6.5409   6.5429   6.5450   6.5479   8.8828   8.8844   8.8875   8.8893

          k =-0.5000 0.5000 0.1667 (  3276 PWs)   bands (ev):

    -0.6194  -0.6159  -0.6128  -0.6117   3.2704   3.2720   3.2757   3.2782
     6.5406   6.5422   6.5459   6.5482   8.8808   8.8849   8.8871   8.8912

     the Fermi energy is     7.1748 ev

!    total energy              =    -314.80491147 Ry
     Harris-Foulkes estimate   =    -314.80491173 Ry
     estimated scf accuracy    <       0.00000041 Ry

     total all-electron energy =     -3883.947156 Ry

     The total energy is the sum of the following terms:

     one-electron contribution =      24.70882862 Ry
     hartree contribution      =       0.76397622 Ry
     xc contribution           =     -21.50475557 Ry
     ewald contribution        =     -40.71648545 Ry
     one-center paw contrib.   =    -278.05624384 Ry
     smearing contrib. (-TS)   =      -0.00023146 Ry

     convergence has been achieved in   9 iterations

     Forces acting on atoms (cartesian axes, Ry/au):

     atom    1 type  1   force =     0.00077135    0.00010501    0.00081064
     atom    2 type  1   force =    -0.00052599    0.00279973   -0.00162426
     atom    3 type  1   force =     0.00180199    0.00063700   -0.00208240
     atom    4 type  1   force =     0.00065297   -0.00206524   -0.00036447
     atom    5 type  1   force =    -0.00196035   -0.00107510    0.00176009
     atom    6 type  1   force =    -0.00177473    0.00140221    0.00034507
     atom    7 type  1   force =     0.00038137   -0.00122545    0.00247943
     atom    8 type  1   force =     0.00065338   -0.00057816   -0.00132410

     Total force =     0.006962     Total SCF correction =     0.000386


     Computing stress (Cartesian axis) and pressure

          total   stress  (Ry/bohr**3)                   (kbar)     P=  579.49
   0.00393933   0.00001437  -0.00000645        579.50      2.11     -0.95
   0.00001437   0.00393929  -0.00001186          2.11    579.49     -1.75
  -0.00000645  -0.00001186   0.00393930         -0.95     -1.75    579.49


     Writing output data file fe_scf_fcc_2.save/

     init_run     :      0.30s CPU      0.32s WALL (       1 calls)
     electrons    :      3.47s CPU      3.67s WALL (       1 calls)
     forces       :      0.07s CPU      0.08s WALL (       1 calls)
     stress       :      0.11s CPU      0.11s WALL (       1 calls)

     Called by init_run:
     wfcinit      :      0.19s CPU      0.20s WALL (       1 calls)
     potinit      :      0.07s CPU      0.07s WALL (       1 calls)
     hinit0       :      0.04s CPU      0.04s WALL (       1 calls)

     Called by electrons:
     c_bands      :      2.53s CPU      2.70s WALL (      10 calls)
     sum_band     :      0.35s CPU      0.37s WALL (      10 calls)
     v_of_rho     :      0.03s CPU      0.03s WALL (      10 calls)
     newd         :      0.02s CPU      0.02s WALL (      10 calls)
     PAW_pot      :      0.61s CPU      0.62s WALL (      10 calls)
     mix_rho      :      0.00s CPU      0.00s WALL (      10 calls)

     Called by c_bands:
     init_us_2    :      0.05s CPU      0.06s WALL (     322 calls)
     cegterg      :      2.41s CPU      2.58s WALL (     140 calls)

     Called by sum_band:
     sum_band:bec :      0.00s CPU      0.00s WALL (     140 calls)
     addusdens    :      0.01s CPU      0.01s WALL (      10 calls)

     Called by *egterg:
     h_psi        :      1.58s CPU      1.71s WALL (     454 calls)
     s_psi        :      0.27s CPU      0.29s WALL (     454 calls)
     g_psi        :      0.01s CPU      0.01s WALL (     300 calls)
     cdiaghg      :      0.14s CPU      0.15s WALL (     426 calls)

     Called by h_psi:
     h_psi:pot    :      1.57s CPU      1.71s WALL (     454 calls)
     h_psi:calbec :      0.35s CPU      0.38s WALL (     454 calls)
     vloc_psi     :      0.97s CPU      1.03s WALL (     454 calls)
     add_vuspsi   :      0.26s CPU      0.29s WALL (     454 calls)

     General routines
     calbec       :      0.54s CPU      0.59s WALL (     664 calls)
     fft          :      0.02s CPU      0.02s WALL (     136 calls)
     ffts         :      0.00s CPU      0.00s WALL (      10 calls)
     fftw         :      1.08s CPU      1.15s WALL (   14578 calls)

     Parallel routines
     fft_scatt_xy :      0.09s CPU      0.09s WALL (   14724 calls)
     fft_scatt_yz :      0.45s CPU      0.48s WALL (   14724 calls)

     PWSCF        :      4.28s CPU      4.52s WALL


   This run was terminated on:   4:42:18  19Mar2020            

=------------------------------------------------------------------------------=
   JOB DONE.
=------------------------------------------------------------------------------=
