
     Program PWSCF v.6.4.1 starts on 19Mar2020 at  4:40: 8 

     This program is part of the open-source Quantum ESPRESSO suite
     for quantum simulation of materials; please cite
         "P. Giannozzi et al., J. Phys.:Condens. Matter 21 395502 (2009);
         "P. Giannozzi et al., J. Phys.:Condens. Matter 29 465901 (2017);
          URL http://www.quantum-espresso.org", 
     in publications or presentations arising from this work. More details at
     http://www.quantum-espresso.org/quote

     Parallel version (MPI), running on     4 processors

     MPI processes distributed on     1 nodes
     R & G space division:  proc/nbgrp/npool/nimage =       4
     Reading input from wd/ecut/file_000003.in
Warning: card &IONS ignored
Warning: card ION_DYNAMICS = 'BFGS', ignored
Warning: card / ignored
Warning: card &CELL ignored
Warning: card CELL_DYNAMICS = 'BFGS', ignored
Warning: card CELL_FACTOR = 2.0, ignored
Warning: card PRESS = 0.0, ignored
Warning: card / ignored

     Current dimensions of program PWSCF are:
     Max number of different atomic species (ntypx) = 10
     Max number of k-points (npk) =  40000
     Max angular momentum in pseudopotentials (lmaxx) =  3
               file Al.pbe-nl-kjpaw_psl.1.0.0.UPF: wavefunction(s)  3S 3P renormalized

     Subspace diagonalization in iterative solution of the eigenvalue problem:
     a serial algorithm will be used


     Parallelization info
     --------------------
     sticks:   dense  smooth     PW     G-vecs:    dense   smooth      PW
     Min         251     251     73                 6027     6027     977
     Max         252     252     74                 6030     6030     980
     Sum        1005    1005    293                24111    24111    3911



     bravais-lattice index     =            0
     lattice parameter (alat)  =       9.5256  a.u.
     unit-cell volume          =     864.3249 (a.u.)^3
     number of atoms/cell      =            8
     number of atomic types    =            1
     number of electrons       =        24.00
     number of Kohn-Sham states=           16
     kinetic-energy cutoff     =      35.0000  Ry
     charge density cutoff     =     140.0000  Ry
     convergence threshold     =      1.0E-06
     mixing beta               =       0.1000
     number of iterations used =           10  TF        mixing
     Exchange-correlation      = SLA PW PBX PBC ( 1  4  3  4 0 0)

     celldm(1)=   9.525600  celldm(2)=   0.000000  celldm(3)=   0.000000
     celldm(4)=   0.000000  celldm(5)=   0.000000  celldm(6)=   0.000000

     crystal axes: (cart. coord. in units of alat)
               a(1) = (   1.000000   0.000000   0.000000 )  
               a(2) = (   0.000000   1.000000   0.000000 )  
               a(3) = (   0.000000   0.000000   1.000000 )  

     reciprocal axes: (cart. coord. in units 2 pi/alat)
               b(1) = (  1.000000  0.000000  0.000000 )  
               b(2) = (  0.000000  1.000000  0.000000 )  
               b(3) = (  0.000000  0.000000  1.000000 )  


     PseudoPot. # 1 for Al read from file:
     /opt/pp/Al.pbe-nl-kjpaw_psl.1.0.0.UPF
     MD5 check sum: 1b67f78b73fe58c7924490f171ce8a1e
     Pseudo is Projector augmented-wave + core cor, Zval =  3.0
     Generated using "atomic" code by A. Dal Corso v.6.3
     Shape of augmentation charge: PSQ
     Using radial grid of 1135 points,  4 beta functions with: 
                l(1) =   0
                l(2) =   0
                l(3) =   1
                l(4) =   1
     Q(r) pseudized with 0 coefficients 


     atomic species   valence    mass     pseudopotential
        Al             3.00    26.98200     Al( 1.00)

     No symmetry found



   Cartesian axes

     site n.     atom                  positions (alat units)
         1           Al  tau(   1) = (  -0.0000524   0.0000152   0.0001091  )
         2           Al  tau(   2) = (   0.5001276   0.4996954   0.0001127  )
         3           Al  tau(   3) = (   0.4998511   0.0000489   0.5004737  )
         4           Al  tau(   4) = (  -0.0000321   0.5003506   0.5002945  )
         5           Al  tau(   5) = (   0.2504101   0.2504042   0.2498092  )
         6           Al  tau(   6) = (   0.7501915   0.7497316   0.2500057  )
         7           Al  tau(   7) = (   0.2500445   0.7502467   0.7498205  )
         8           Al  tau(   8) = (   0.7500880   0.2501822   0.7503368  )

     number of k points=    14  Marzari-Vanderbilt smearing, width (Ry)=  0.0200
                       cart. coord. in units 2pi/alat
        k(    1) = (   0.1666667   0.1666667   0.1666667), wk =   0.1481481
        k(    2) = (   0.1666667   0.1666667  -0.5000000), wk =   0.1481481
        k(    3) = (   0.1666667  -0.5000000  -0.5000000), wk =   0.1481481
        k(    4) = (  -0.5000000  -0.5000000  -0.5000000), wk =   0.0740741
        k(    5) = (  -0.1666667  -0.1666667   0.1666667), wk =   0.1481481
        k(    6) = (  -0.1666667   0.1666667  -0.1666667), wk =   0.1481481
        k(    7) = (   0.1666667  -0.1666667  -0.1666667), wk =   0.1481481
        k(    8) = (  -0.1666667   0.1666667   0.5000000), wk =   0.1481481
        k(    9) = (  -0.5000000  -0.1666667   0.1666667), wk =   0.1481481
        k(   10) = (   0.5000000  -0.1666667  -0.1666667), wk =   0.1481481
        k(   11) = (  -0.1666667  -0.5000000   0.1666667), wk =   0.1481481
        k(   12) = (  -0.1666667   0.5000000  -0.1666667), wk =   0.1481481
        k(   13) = (  -0.5000000   0.1666667   0.5000000), wk =   0.1481481
        k(   14) = (  -0.5000000   0.5000000   0.1666667), wk =   0.1481481

     Dense  grid:    24111 G-vectors     FFT dimensions: (  36,  36,  36)

     Estimated max dynamical RAM per process >      13.62 MB

     Estimated total dynamical RAM >      54.49 MB

     Initial potential from superposition of free atoms

     starting charge   23.98168, renormalised to   24.00000
     Starting wfcs are   32 randomized atomic wfcs
     Checking if some PAW data can be deallocated... 

     total cpu time spent up to now is        0.7 secs

     Self-consistent Calculation

     iteration #  1     ecut=    35.00 Ry     beta= 0.10
     Davidson diagonalization with overlap
     ethr =  1.00E-02,  avg # of iterations =  2.3

     Threshold (ethr) on eigenvalues was too large:
     Diagonalizing with lowered threshold

     Davidson diagonalization with overlap
     ethr =  1.68E-04,  avg # of iterations =  2.6

     total cpu time spent up to now is        1.6 secs

     total energy              =    -314.81170411 Ry
     Harris-Foulkes estimate   =    -314.81417523 Ry
     estimated scf accuracy    <       0.03907088 Ry

     iteration #  2     ecut=    35.00 Ry     beta= 0.10
     Davidson diagonalization with overlap
     ethr =  1.63E-04,  avg # of iterations =  1.0

     total cpu time spent up to now is        1.9 secs

     total energy              =    -314.80340539 Ry
     Harris-Foulkes estimate   =    -314.81198353 Ry
     estimated scf accuracy    <       0.03393860 Ry

     iteration #  3     ecut=    35.00 Ry     beta= 0.10
     Davidson diagonalization with overlap
     ethr =  1.41E-04,  avg # of iterations =  1.0

     total cpu time spent up to now is        2.3 secs

     total energy              =    -314.80501612 Ry
     Harris-Foulkes estimate   =    -314.80551170 Ry
     estimated scf accuracy    <       0.00064782 Ry

     iteration #  4     ecut=    35.00 Ry     beta= 0.10
     Davidson diagonalization with overlap
     ethr =  2.70E-06,  avg # of iterations =  5.4

     total cpu time spent up to now is        2.9 secs

     total energy              =    -314.80501324 Ry
     Harris-Foulkes estimate   =    -314.80567899 Ry
     estimated scf accuracy    <       0.00029469 Ry

     iteration #  5     ecut=    35.00 Ry     beta= 0.10
     Davidson diagonalization with overlap
     ethr =  1.23E-06,  avg # of iterations =  1.0

     total cpu time spent up to now is        3.3 secs

     total energy              =    -314.80482639 Ry
     Harris-Foulkes estimate   =    -314.80502902 Ry
     estimated scf accuracy    <       0.00026057 Ry

     iteration #  6     ecut=    35.00 Ry     beta= 0.10
     Davidson diagonalization with overlap
     ethr =  1.09E-06,  avg # of iterations =  2.0

     total cpu time spent up to now is        3.7 secs

     total energy              =    -314.80485492 Ry
     Harris-Foulkes estimate   =    -314.80485188 Ry
     estimated scf accuracy    <       0.00001351 Ry

     iteration #  7     ecut=    35.00 Ry     beta= 0.10
     Davidson diagonalization with overlap
     ethr =  5.63E-08,  avg # of iterations =  2.9

     total cpu time spent up to now is        4.1 secs

     total energy              =    -314.80482208 Ry
     Harris-Foulkes estimate   =    -314.80485798 Ry
     estimated scf accuracy    <       0.00001189 Ry

     iteration #  8     ecut=    35.00 Ry     beta= 0.10
     Davidson diagonalization with overlap
     ethr =  4.96E-08,  avg # of iterations =  1.0

     total cpu time spent up to now is        4.5 secs

     total energy              =    -314.80480570 Ry
     Harris-Foulkes estimate   =    -314.80482243 Ry
     estimated scf accuracy    <       0.00000778 Ry

     iteration #  9     ecut=    35.00 Ry     beta= 0.10
     Davidson diagonalization with overlap
     ethr =  3.24E-08,  avg # of iterations =  2.0

     total cpu time spent up to now is        4.9 secs

     End of self-consistent calculation

          k = 0.1667 0.1667 0.1667 (  3026 PWs)   bands (ev):

    -3.0184   0.5935   0.5991   0.6034   3.6776   3.6829   3.6876   5.0195
     5.0243   5.0294   7.0186   7.0195   7.0211   7.6420   9.5846   9.5867

          k = 0.1667 0.1667-0.5000 (  3018 PWs)   bands (ev):

    -1.7886  -1.7844   1.2265   1.2271   2.5469   2.5480   5.0881   5.0885
     5.4586   5.4624   6.1793   6.1804   8.0497   8.0559   8.2123   8.2156

          k = 0.1667-0.5000-0.5000 (  3028 PWs)   bands (ev):

    -0.6196  -0.6166  -0.6144  -0.6089   3.2691   3.2722   3.2752   3.2798
     6.5394   6.5424   6.5453   6.5500   8.8827   8.8839   8.8852   8.8926

          k =-0.5000-0.5000-0.5000 (  3016 PWs)   bands (ev):

     0.0245   0.0263   0.0283   0.0304   1.4972   1.4998   1.5024   1.5034
     9.1881   9.1905   9.1924   9.1939   9.1951   9.1976   9.1989   9.2016

          k =-0.1667-0.1667 0.1667 (  3026 PWs)   bands (ev):

    -3.0184   0.5950   0.5988   0.6016   3.6809   3.6843   3.6875   5.0189
     5.0220   5.0254   7.0199   7.0208   7.0216   7.6401   9.5849   9.5871

          k =-0.1667 0.1667-0.1667 (  3026 PWs)   bands (ev):

    -3.0184   0.5966   0.5991   0.6003   3.6806   3.6828   3.6840   5.0231
     5.0247   5.0263   7.0181   7.0195   7.0212   7.6423   9.5835   9.5859

          k = 0.1667-0.1667-0.1667 (  3026 PWs)   bands (ev):

    -3.0184   0.5941   0.5993   0.6028   3.6775   3.6825   3.6861   5.0211
     5.0254   5.0295   7.0185   7.0189   7.0205   7.6428   9.5845   9.5853

          k =-0.1667 0.1667 0.5000 (  3018 PWs)   bands (ev):

    -1.7887  -1.7845   1.2257   1.2301   2.5430   2.5473   5.0888   5.0931
     5.4590   5.4634   6.1763   6.1805   8.0477   8.0522   8.2144   8.2179

          k =-0.5000-0.1667 0.1667 (  3018 PWs)   bands (ev):

    -1.7873  -1.7858   1.2264   1.2274   2.5466   2.5478   5.0882   5.0890
     5.4594   5.4617   6.1791   6.1803   8.0515   8.0536   8.2125   8.2157

          k = 0.5000-0.1667-0.1667 (  3018 PWs)   bands (ev):

    -1.7874  -1.7858   1.2265   1.2291   2.5438   2.5469   5.0897   5.0918
     5.4603   5.4620   6.1770   6.1800   8.0493   8.0510   8.2153   8.2168

          k =-0.1667-0.5000 0.1667 (  3018 PWs)   bands (ev):

    -1.7884  -1.7847   1.2258   1.2284   2.5455   2.5480   5.0877   5.0904
     5.4586   5.4628   6.1782   6.1807   8.0497   8.0544   8.2122   8.2169

          k =-0.1667 0.5000-0.1667 (  3018 PWs)   bands (ev):

    -1.7884  -1.7847   1.2260   1.2293   2.5436   2.5480   5.0889   5.0916
     5.4593   5.4628   6.1767   6.1809   8.0483   8.0532   8.2143   8.2168

          k =-0.5000 0.1667 0.5000 (  3028 PWs)   bands (ev):

    -0.6184  -0.6159  -0.6132  -0.6120   3.2708   3.2728   3.2752   3.2775
     6.5411   6.5429   6.5452   6.5479   8.8829   8.8845   8.8876   8.8895

          k =-0.5000 0.5000 0.1667 (  3028 PWs)   bands (ev):

    -0.6192  -0.6159  -0.6127  -0.6115   3.2704   3.2720   3.2757   3.2782
     6.5407   6.5422   6.5459   6.5483   8.8809   8.8850   8.8873   8.8913

     the Fermi energy is     7.1748 ev

!    total energy              =    -314.80480751 Ry
     Harris-Foulkes estimate   =    -314.80480755 Ry
     estimated scf accuracy    <       0.00000020 Ry

     total all-electron energy =     -3883.947052 Ry

     The total energy is the sum of the following terms:

     one-electron contribution =      24.70963182 Ry
     hartree contribution      =       0.76402624 Ry
     xc contribution           =     -21.50520098 Ry
     ewald contribution        =     -40.71648506 Ry
     one-center paw contrib.   =    -278.05654877 Ry
     smearing contrib. (-TS)   =      -0.00023076 Ry

     convergence has been achieved in   9 iterations

     Forces acting on atoms (cartesian axes, Ry/au):

     atom    1 type  1   force =     0.00077504    0.00010507    0.00080789
     atom    2 type  1   force =    -0.00052168    0.00280815   -0.00162493
     atom    3 type  1   force =     0.00180000    0.00062420   -0.00207777
     atom    4 type  1   force =     0.00064868   -0.00205548   -0.00036617
     atom    5 type  1   force =    -0.00197044   -0.00107956    0.00176028
     atom    6 type  1   force =    -0.00176172    0.00140247    0.00035140
     atom    7 type  1   force =     0.00037148   -0.00122936    0.00247628
     atom    8 type  1   force =     0.00065865   -0.00057549   -0.00132698

     Total force =     0.006960     Total SCF correction =     0.000239


     Computing stress (Cartesian axis) and pressure

          total   stress  (Ry/bohr**3)                   (kbar)     P=  579.50
   0.00393937   0.00001439  -0.00000647        579.50      2.12     -0.95
   0.00001439   0.00393932  -0.00001189          2.12    579.49     -1.75
  -0.00000647  -0.00001189   0.00393933         -0.95     -1.75    579.50


     Writing output data file fe_scf_fcc_2.save/

     init_run     :      0.35s CPU      0.37s WALL (       1 calls)
     electrons    :      4.15s CPU      4.26s WALL (       1 calls)
     forces       :      0.08s CPU      0.09s WALL (       1 calls)
     stress       :      0.13s CPU      0.13s WALL (       1 calls)

     Called by init_run:
     wfcinit      :      0.23s CPU      0.24s WALL (       1 calls)
     potinit      :      0.06s CPU      0.07s WALL (       1 calls)
     hinit0       :      0.04s CPU      0.04s WALL (       1 calls)

     Called by electrons:
     c_bands      :      3.03s CPU      3.12s WALL (      10 calls)
     sum_band     :      0.47s CPU      0.48s WALL (      10 calls)
     v_of_rho     :      0.06s CPU      0.06s WALL (      10 calls)
     newd         :      0.05s CPU      0.05s WALL (      10 calls)
     PAW_pot      :      0.60s CPU      0.61s WALL (      10 calls)
     mix_rho      :      0.01s CPU      0.01s WALL (      10 calls)

     Called by c_bands:
     init_us_2    :      0.05s CPU      0.05s WALL (     322 calls)
     cegterg      :      2.92s CPU      3.01s WALL (     140 calls)

     Called by sum_band:
     sum_band:bec :      0.00s CPU      0.00s WALL (     140 calls)
     addusdens    :      0.03s CPU      0.03s WALL (      10 calls)

     Called by *egterg:
     h_psi        :      2.20s CPU      2.29s WALL (     451 calls)
     s_psi        :      0.25s CPU      0.26s WALL (     451 calls)
     g_psi        :      0.01s CPU      0.01s WALL (     297 calls)
     cdiaghg      :      0.14s CPU      0.14s WALL (     423 calls)

     Called by h_psi:
     h_psi:pot    :      2.19s CPU      2.28s WALL (     451 calls)
     h_psi:calbec :      0.33s CPU      0.35s WALL (     451 calls)
     vloc_psi     :      1.61s CPU      1.68s WALL (     451 calls)
     add_vuspsi   :      0.25s CPU      0.26s WALL (     451 calls)

     General routines
     calbec       :      0.51s CPU      0.53s WALL (     661 calls)
     fft          :      0.03s CPU      0.04s WALL (     136 calls)
     ffts         :      0.00s CPU      0.00s WALL (      10 calls)
     fftw         :      1.79s CPU      1.86s WALL (   14562 calls)

     Parallel routines
     fft_scatt_xy :      0.15s CPU      0.16s WALL (   14708 calls)
     fft_scatt_yz :      0.56s CPU      0.58s WALL (   14708 calls)

     PWSCF        :      5.03s CPU      5.19s WALL


   This run was terminated on:   4:40:14  19Mar2020            

=------------------------------------------------------------------------------=
   JOB DONE.
=------------------------------------------------------------------------------=
