
     Program PWSCF v.6.4.1 starts on 19Mar2020 at  4:40: 3 

     This program is part of the open-source Quantum ESPRESSO suite
     for quantum simulation of materials; please cite
         "P. Giannozzi et al., J. Phys.:Condens. Matter 21 395502 (2009);
         "P. Giannozzi et al., J. Phys.:Condens. Matter 29 465901 (2017);
          URL http://www.quantum-espresso.org", 
     in publications or presentations arising from this work. More details at
     http://www.quantum-espresso.org/quote

     Parallel version (MPI), running on     4 processors

     MPI processes distributed on     1 nodes
     R & G space division:  proc/nbgrp/npool/nimage =       4
     Reading input from wd/ecut/file_000002.in
Warning: card &IONS ignored
Warning: card ION_DYNAMICS = 'BFGS', ignored
Warning: card / ignored
Warning: card &CELL ignored
Warning: card CELL_DYNAMICS = 'BFGS', ignored
Warning: card CELL_FACTOR = 2.0, ignored
Warning: card PRESS = 0.0, ignored
Warning: card / ignored

     Current dimensions of program PWSCF are:
     Max number of different atomic species (ntypx) = 10
     Max number of k-points (npk) =  40000
     Max angular momentum in pseudopotentials (lmaxx) =  3
               file Al.pbe-nl-kjpaw_psl.1.0.0.UPF: wavefunction(s)  3S 3P renormalized

     Subspace diagonalization in iterative solution of the eigenvalue problem:
     a serial algorithm will be used


     Parallelization info
     --------------------
     sticks:   dense  smooth     PW     G-vecs:    dense   smooth      PW
     Min         217     217     65                 4803     4803     809
     Max         218     218     66                 4804     4804     812
     Sum         869     869    261                19213    19213    3239



     bravais-lattice index     =            0
     lattice parameter (alat)  =       9.5256  a.u.
     unit-cell volume          =     864.3249 (a.u.)^3
     number of atoms/cell      =            8
     number of atomic types    =            1
     number of electrons       =        24.00
     number of Kohn-Sham states=           16
     kinetic-energy cutoff     =      30.0000  Ry
     charge density cutoff     =     120.0000  Ry
     convergence threshold     =      1.0E-06
     mixing beta               =       0.1000
     number of iterations used =           10  TF        mixing
     Exchange-correlation      = SLA PW PBX PBC ( 1  4  3  4 0 0)

     celldm(1)=   9.525600  celldm(2)=   0.000000  celldm(3)=   0.000000
     celldm(4)=   0.000000  celldm(5)=   0.000000  celldm(6)=   0.000000

     crystal axes: (cart. coord. in units of alat)
               a(1) = (   1.000000   0.000000   0.000000 )  
               a(2) = (   0.000000   1.000000   0.000000 )  
               a(3) = (   0.000000   0.000000   1.000000 )  

     reciprocal axes: (cart. coord. in units 2 pi/alat)
               b(1) = (  1.000000  0.000000  0.000000 )  
               b(2) = (  0.000000  1.000000  0.000000 )  
               b(3) = (  0.000000  0.000000  1.000000 )  


     PseudoPot. # 1 for Al read from file:
     /opt/pp/Al.pbe-nl-kjpaw_psl.1.0.0.UPF
     MD5 check sum: 1b67f78b73fe58c7924490f171ce8a1e
     Pseudo is Projector augmented-wave + core cor, Zval =  3.0
     Generated using "atomic" code by A. Dal Corso v.6.3
     Shape of augmentation charge: PSQ
     Using radial grid of 1135 points,  4 beta functions with: 
                l(1) =   0
                l(2) =   0
                l(3) =   1
                l(4) =   1
     Q(r) pseudized with 0 coefficients 


     atomic species   valence    mass     pseudopotential
        Al             3.00    26.98200     Al( 1.00)

     No symmetry found



   Cartesian axes

     site n.     atom                  positions (alat units)
         1           Al  tau(   1) = (  -0.0000524   0.0000152   0.0001091  )
         2           Al  tau(   2) = (   0.5001276   0.4996954   0.0001127  )
         3           Al  tau(   3) = (   0.4998511   0.0000489   0.5004737  )
         4           Al  tau(   4) = (  -0.0000321   0.5003506   0.5002945  )
         5           Al  tau(   5) = (   0.2504101   0.2504042   0.2498092  )
         6           Al  tau(   6) = (   0.7501915   0.7497316   0.2500057  )
         7           Al  tau(   7) = (   0.2500445   0.7502467   0.7498205  )
         8           Al  tau(   8) = (   0.7500880   0.2501822   0.7503368  )

     number of k points=    14  Marzari-Vanderbilt smearing, width (Ry)=  0.0200
                       cart. coord. in units 2pi/alat
        k(    1) = (   0.1666667   0.1666667   0.1666667), wk =   0.1481481
        k(    2) = (   0.1666667   0.1666667  -0.5000000), wk =   0.1481481
        k(    3) = (   0.1666667  -0.5000000  -0.5000000), wk =   0.1481481
        k(    4) = (  -0.5000000  -0.5000000  -0.5000000), wk =   0.0740741
        k(    5) = (  -0.1666667  -0.1666667   0.1666667), wk =   0.1481481
        k(    6) = (  -0.1666667   0.1666667  -0.1666667), wk =   0.1481481
        k(    7) = (   0.1666667  -0.1666667  -0.1666667), wk =   0.1481481
        k(    8) = (  -0.1666667   0.1666667   0.5000000), wk =   0.1481481
        k(    9) = (  -0.5000000  -0.1666667   0.1666667), wk =   0.1481481
        k(   10) = (   0.5000000  -0.1666667  -0.1666667), wk =   0.1481481
        k(   11) = (  -0.1666667  -0.5000000   0.1666667), wk =   0.1481481
        k(   12) = (  -0.1666667   0.5000000  -0.1666667), wk =   0.1481481
        k(   13) = (  -0.5000000   0.1666667   0.5000000), wk =   0.1481481
        k(   14) = (  -0.5000000   0.5000000   0.1666667), wk =   0.1481481

     Dense  grid:    19213 G-vectors     FFT dimensions: (  36,  36,  36)

     Estimated max dynamical RAM per process >      11.06 MB

     Estimated total dynamical RAM >      44.23 MB

     Initial potential from superposition of free atoms

     starting charge   23.98168, renormalised to   24.00000
     Starting wfcs are   32 randomized atomic wfcs
     Checking if some PAW data can be deallocated... 

     total cpu time spent up to now is        0.7 secs

     Self-consistent Calculation

     iteration #  1     ecut=    30.00 Ry     beta= 0.10
     Davidson diagonalization with overlap
     ethr =  1.00E-02,  avg # of iterations =  2.1

     Threshold (ethr) on eigenvalues was too large:
     Diagonalizing with lowered threshold

     Davidson diagonalization with overlap
     ethr =  1.69E-04,  avg # of iterations =  2.5

     total cpu time spent up to now is        1.5 secs

     total energy              =    -314.81070325 Ry
     Harris-Foulkes estimate   =    -314.81318822 Ry
     estimated scf accuracy    <       0.03903180 Ry

     iteration #  2     ecut=    30.00 Ry     beta= 0.10
     Davidson diagonalization with overlap
     ethr =  1.63E-04,  avg # of iterations =  1.0

     total cpu time spent up to now is        1.8 secs

     total energy              =    -314.80239233 Ry
     Harris-Foulkes estimate   =    -314.81103065 Ry
     estimated scf accuracy    <       0.03391336 Ry

     iteration #  3     ecut=    30.00 Ry     beta= 0.10
     Davidson diagonalization with overlap
     ethr =  1.41E-04,  avg # of iterations =  1.0

     total cpu time spent up to now is        2.1 secs

     total energy              =    -314.80407568 Ry
     Harris-Foulkes estimate   =    -314.80452000 Ry
     estimated scf accuracy    <       0.00064145 Ry

     iteration #  4     ecut=    30.00 Ry     beta= 0.10
     Davidson diagonalization with overlap
     ethr =  2.67E-06,  avg # of iterations =  5.5

     total cpu time spent up to now is        2.7 secs

     total energy              =    -314.80408895 Ry
     Harris-Foulkes estimate   =    -314.80477499 Ry
     estimated scf accuracy    <       0.00030137 Ry

     iteration #  5     ecut=    30.00 Ry     beta= 0.10
     Davidson diagonalization with overlap
     ethr =  1.26E-06,  avg # of iterations =  1.0

     total cpu time spent up to now is        3.1 secs

     total energy              =    -314.80388354 Ry
     Harris-Foulkes estimate   =    -314.80410538 Ry
     estimated scf accuracy    <       0.00026211 Ry

     iteration #  6     ecut=    30.00 Ry     beta= 0.10
     Davidson diagonalization with overlap
     ethr =  1.09E-06,  avg # of iterations =  2.0

     total cpu time spent up to now is        3.4 secs

     total energy              =    -314.80391187 Ry
     Harris-Foulkes estimate   =    -314.80390936 Ry
     estimated scf accuracy    <       0.00001465 Ry

     iteration #  7     ecut=    30.00 Ry     beta= 0.10
     Davidson diagonalization with overlap
     ethr =  6.10E-08,  avg # of iterations =  2.9

     total cpu time spent up to now is        3.9 secs

     total energy              =    -314.80388520 Ry
     Harris-Foulkes estimate   =    -314.80391483 Ry
     estimated scf accuracy    <       0.00001359 Ry

     iteration #  8     ecut=    30.00 Ry     beta= 0.10
     Davidson diagonalization with overlap
     ethr =  5.66E-08,  avg # of iterations =  1.0

     total cpu time spent up to now is        4.2 secs

     total energy              =    -314.80386495 Ry
     Harris-Foulkes estimate   =    -314.80388547 Ry
     estimated scf accuracy    <       0.00001016 Ry

     iteration #  9     ecut=    30.00 Ry     beta= 0.10
     Davidson diagonalization with overlap
     ethr =  4.23E-08,  avg # of iterations =  2.0

     total cpu time spent up to now is        4.6 secs

     End of self-consistent calculation

          k = 0.1667 0.1667 0.1667 (  2394 PWs)   bands (ev):

    -3.0182   0.5938   0.5993   0.6038   3.6782   3.6835   3.6882   5.0203
     5.0250   5.0302   7.0190   7.0201   7.0216   7.6434   9.5876   9.5892

          k = 0.1667 0.1667-0.5000 (  2388 PWs)   bands (ev):

    -1.7884  -1.7842   1.2271   1.2276   2.5473   2.5484   5.0889   5.0892
     5.4594   5.4632   6.1804   6.1815   8.0507   8.0569   8.2136   8.2168

          k = 0.1667-0.5000-0.5000 (  2384 PWs)   bands (ev):

    -0.6194  -0.6161  -0.6140  -0.6087   3.2696   3.2730   3.2757   3.2803
     6.5402   6.5435   6.5462   6.5508   8.8838   8.8850   8.8863   8.8938

          k =-0.5000-0.5000-0.5000 (  2440 PWs)   bands (ev):

     0.0248   0.0269   0.0286   0.0308   1.4974   1.5000   1.5025   1.5036
     9.1888   9.1914   9.1933   9.1947   9.1959   9.1984   9.1998   9.2024

          k =-0.1667-0.1667 0.1667 (  2394 PWs)   bands (ev):

    -3.0182   0.5954   0.5991   0.6019   3.6815   3.6849   3.6880   5.0197
     5.0228   5.0262   7.0204   7.0213   7.0220   7.6415   9.5881   9.5903

          k =-0.1667 0.1667-0.1667 (  2394 PWs)   bands (ev):

    -3.0182   0.5970   0.5993   0.6007   3.6812   3.6834   3.6846   5.0239
     5.0254   5.0271   7.0186   7.0201   7.0217   7.6437   9.5864   9.5888

          k = 0.1667-0.1667-0.1667 (  2394 PWs)   bands (ev):

    -3.0182   0.5945   0.5996   0.6031   3.6781   3.6831   3.6867   5.0219
     5.0262   5.0304   7.0190   7.0194   7.0210   7.6442   9.5872   9.5885

          k =-0.1667 0.1667 0.5000 (  2388 PWs)   bands (ev):

    -1.7885  -1.7843   1.2262   1.2307   2.5434   2.5478   5.0896   5.0939
     5.4598   5.4642   6.1773   6.1815   8.0487   8.0532   8.2157   8.2192

          k =-0.5000-0.1667 0.1667 (  2388 PWs)   bands (ev):

    -1.7872  -1.7854   1.2269   1.2280   2.5470   2.5483   5.0889   5.0897
     5.4602   5.4625   6.1802   6.1814   8.0523   8.0548   8.2138   8.2170

          k = 0.5000-0.1667-0.1667 (  2388 PWs)   bands (ev):

    -1.7872  -1.7855   1.2270   1.2297   2.5442   2.5474   5.0903   5.0927
     5.4610   5.4629   6.1781   6.1811   8.0502   8.0521   8.2165   8.2180

          k =-0.1667-0.5000 0.1667 (  2388 PWs)   bands (ev):

    -1.7881  -1.7846   1.2264   1.2290   2.5460   2.5485   5.0885   5.0911
     5.4594   5.4636   6.1793   6.1817   8.0508   8.0552   8.2134   8.2182

          k =-0.1667 0.5000-0.1667 (  2388 PWs)   bands (ev):

    -1.7881  -1.7846   1.2266   1.2297   2.5441   2.5484   5.0897   5.0923
     5.4602   5.4635   6.1777   6.1820   8.0493   8.0541   8.2156   8.2181

          k =-0.5000 0.1667 0.5000 (  2384 PWs)   bands (ev):

    -0.6182  -0.6154  -0.6130  -0.6117   3.2713   3.2735   3.2757   3.2782
     6.5419   6.5439   6.5460   6.5489   8.8840   8.8856   8.8887   8.8905

          k =-0.5000 0.5000 0.1667 (  2384 PWs)   bands (ev):

    -0.6190  -0.6154  -0.6124  -0.6113   3.2710   3.2726   3.2763   3.2787
     6.5415   6.5431   6.5469   6.5491   8.8820   8.8861   8.8883   8.8924

     the Fermi energy is     7.1753 ev

!    total energy              =    -314.80386705 Ry
     Harris-Foulkes estimate   =    -314.80386728 Ry
     estimated scf accuracy    <       0.00000043 Ry

     total all-electron energy =     -3883.946111 Ry

     The total energy is the sum of the following terms:

     one-electron contribution =      24.71181265 Ry
     hartree contribution      =       0.76398018 Ry
     xc contribution           =     -21.50535967 Ry
     ewald contribution        =     -40.71648506 Ry
     one-center paw contrib.   =    -278.05759052 Ry
     smearing contrib. (-TS)   =      -0.00022462 Ry

     convergence has been achieved in   9 iterations

     Forces acting on atoms (cartesian axes, Ry/au):

     atom    1 type  1   force =     0.00077089    0.00010740    0.00081365
     atom    2 type  1   force =    -0.00052389    0.00279937   -0.00162036
     atom    3 type  1   force =     0.00180527    0.00063304   -0.00208245
     atom    4 type  1   force =     0.00064664   -0.00206433   -0.00036816
     atom    5 type  1   force =    -0.00196101   -0.00108271    0.00174672
     atom    6 type  1   force =    -0.00177136    0.00141116    0.00033728
     atom    7 type  1   force =     0.00038155   -0.00121907    0.00248764
     atom    8 type  1   force =     0.00065190   -0.00058484   -0.00131431

     Total force =     0.006960     Total SCF correction =     0.000406


     Computing stress (Cartesian axis) and pressure

          total   stress  (Ry/bohr**3)                   (kbar)     P=  579.11
   0.00393676   0.00001437  -0.00000645        579.12      2.11     -0.95
   0.00001437   0.00393672  -0.00001187          2.11    579.11     -1.75
  -0.00000645  -0.00001187   0.00393673         -0.95     -1.75    579.11


     Writing output data file fe_scf_fcc_2.save/

     init_run     :      0.37s CPU      0.39s WALL (       1 calls)
     electrons    :      3.72s CPU      3.91s WALL (       1 calls)
     forces       :      0.07s CPU      0.07s WALL (       1 calls)
     stress       :      0.10s CPU      0.10s WALL (       1 calls)

     Called by init_run:
     wfcinit      :      0.24s CPU      0.25s WALL (       1 calls)
     potinit      :      0.08s CPU      0.08s WALL (       1 calls)
     hinit0       :      0.04s CPU      0.04s WALL (       1 calls)

     Called by electrons:
     c_bands      :      2.67s CPU      2.81s WALL (      10 calls)
     sum_band     :      0.41s CPU      0.45s WALL (      10 calls)
     v_of_rho     :      0.05s CPU      0.06s WALL (      10 calls)
     newd         :      0.04s CPU      0.04s WALL (      10 calls)
     PAW_pot      :      0.62s CPU      0.62s WALL (      10 calls)
     mix_rho      :      0.01s CPU      0.01s WALL (      10 calls)

     Called by c_bands:
     init_us_2    :      0.04s CPU      0.04s WALL (     322 calls)
     cegterg      :      2.59s CPU      2.72s WALL (     140 calls)

     Called by sum_band:
     sum_band:bec :      0.00s CPU      0.00s WALL (     140 calls)
     addusdens    :      0.02s CPU      0.02s WALL (      10 calls)

     Called by *egterg:
     h_psi        :      2.04s CPU      2.15s WALL (     448 calls)
     s_psi        :      0.20s CPU      0.21s WALL (     448 calls)
     g_psi        :      0.01s CPU      0.01s WALL (     294 calls)
     cdiaghg      :      0.14s CPU      0.14s WALL (     420 calls)

     Called by h_psi:
     h_psi:pot    :      2.04s CPU      2.15s WALL (     448 calls)
     h_psi:calbec :      0.27s CPU      0.28s WALL (     448 calls)
     vloc_psi     :      1.58s CPU      1.66s WALL (     448 calls)
     add_vuspsi   :      0.20s CPU      0.21s WALL (     448 calls)

     General routines
     calbec       :      0.41s CPU      0.44s WALL (     658 calls)
     fft          :      0.03s CPU      0.03s WALL (     136 calls)
     ffts         :      0.00s CPU      0.00s WALL (      10 calls)
     fftw         :      1.74s CPU      1.84s WALL (   14534 calls)

     Parallel routines
     fft_scatt_xy :      0.15s CPU      0.16s WALL (   14680 calls)
     fft_scatt_yz :      0.51s CPU      0.55s WALL (   14680 calls)

     PWSCF        :      4.58s CPU      4.81s WALL


   This run was terminated on:   4:40: 8  19Mar2020            

=------------------------------------------------------------------------------=
   JOB DONE.
=------------------------------------------------------------------------------=
