
     Program PWSCF v.6.3 starts on 20Oct2019 at  2:51: 6 

     This program is part of the open-source Quantum ESPRESSO suite
     for quantum simulation of materials; please cite
         "P. Giannozzi et al., J. Phys.:Condens. Matter 21 395502 (2009);
         "P. Giannozzi et al., J. Phys.:Condens. Matter 29 465901 (2017);
          URL http://www.quantum-espresso.org", 
     in publications or presentations arising from this work. More details at
     http://www.quantum-espresso.org/quote

     Parallel version (MPI), running on     1 processors

     MPI processes distributed on     1 nodes
     Reading input from /cloud/Code/python/py_pwscf_converge/src/example/wd/runpwscf/file_10110.in
Warning: card &IONS ignored
Warning: card ION_DYNAMICS = 'BFGS', ignored
Warning: card / ignored
Warning: card &CELL ignored
Warning: card CELL_DYNAMICS = 'BFGS', ignored
Warning: card CELL_FACTOR = 2.0, ignored
Warning: card PRESS = 0.0, ignored
Warning: card / ignored

     Current dimensions of program PWSCF are:
     Max number of different atomic species (ntypx) = 10
     Max number of k-points (npk) =  40000
     Max angular momentum in pseudopotentials (lmaxx) =  3
               file Al.pbe-nl-kjpaw_psl.1.0.0.UPF: wavefunction(s)  3S 3P renormalized

     Subspace diagonalization in iterative solution of the eigenvalue problem:
     a serial algorithm will be used


     G-vector sticks info
     --------------------
     sticks:   dense  smooth     PW     G-vecs:    dense   smooth      PW
     Sum         293     293    145                 3695     3695    1309



     bravais-lattice index     =            0
     lattice parameter (alat)  =       4.0400  a.u.
     unit-cell volume          =      65.9393 (a.u.)^3
     number of atoms/cell      =            4
     number of atomic types    =            1
     number of electrons       =        12.00
     number of Kohn-Sham states=           10
     kinetic-energy cutoff     =      90.0000  Ry
     charge density cutoff     =     220.0000  Ry
     convergence threshold     =      1.0E-06
     mixing beta               =       0.1000
     number of iterations used =           10  TF        mixing
     Exchange-correlation      = SLA PW PBX PBC ( 1  4  3  4 0 0)

     celldm(1)=   4.040000  celldm(2)=   0.000000  celldm(3)=   0.000000
     celldm(4)=   0.000000  celldm(5)=   0.000000  celldm(6)=   0.000000

     crystal axes: (cart. coord. in units of alat)
               a(1) = (   1.000000   0.000000   0.000000 )  
               a(2) = (   0.000000   1.000000   0.000000 )  
               a(3) = (   0.000000   0.000000   1.000000 )  

     reciprocal axes: (cart. coord. in units 2 pi/alat)
               b(1) = (  1.000000  0.000000  0.000000 )  
               b(2) = (  0.000000  1.000000  0.000000 )  
               b(3) = (  0.000000  0.000000  1.000000 )  


     PseudoPot. # 1 for Al read from file:
     /opt/pp/Al.pbe-nl-kjpaw_psl.1.0.0.UPF
     MD5 check sum: 1b67f78b73fe58c7924490f171ce8a1e
     Pseudo is Projector augmented-wave + core cor, Zval =  3.0
     Generated using "atomic" code by A. Dal Corso v.6.3
     Shape of augmentation charge: PSQ
     Using radial grid of 1135 points,  4 beta functions with: 
                l(1) =   0
                l(2) =   0
                l(3) =   1
                l(4) =   1
     Q(r) pseudized with 0 coefficients 


     atomic species   valence    mass     pseudopotential
        Al             3.00    26.98200     Al( 1.00)

     No symmetry found



   Cartesian axes

     site n.     atom                  positions (alat units)
         1           Al  tau(   1) = (  -0.0001235   0.0000359   0.0002572  )
         2           Al  tau(   2) = (   0.5003009   0.4992819   0.0002658  )
         3           Al  tau(   3) = (   0.4996490   0.0001153   0.5011170  )
         4           Al  tau(   4) = (  -0.0000756   0.5008267   0.5006943  )

     number of k points=    32  Marzari-Vanderbilt smearing, width (Ry)=  0.0200
                       cart. coord. in units 2pi/alat
        k(    1) = (   0.1250000   0.1250000   0.1250000), wk =   0.0625000
        k(    2) = (   0.1250000   0.1250000   0.3750000), wk =   0.0625000
        k(    3) = (   0.1250000   0.3750000   0.3750000), wk =   0.0625000
        k(    4) = (   0.3750000   0.3750000   0.3750000), wk =   0.0625000
        k(    5) = (  -0.1250000  -0.1250000   0.1250000), wk =   0.0625000
        k(    6) = (  -0.1250000   0.1250000  -0.1250000), wk =   0.0625000
        k(    7) = (   0.1250000  -0.1250000  -0.1250000), wk =   0.0625000
        k(    8) = (  -0.1250000  -0.1250000   0.3750000), wk =   0.0625000
        k(    9) = (  -0.1250000   0.1250000  -0.3750000), wk =   0.0625000
        k(   10) = (   0.1250000  -0.1250000  -0.3750000), wk =   0.0625000
        k(   11) = (   0.3750000  -0.1250000   0.1250000), wk =   0.0625000
        k(   12) = (  -0.3750000  -0.1250000  -0.1250000), wk =   0.0625000
        k(   13) = (   0.3750000   0.1250000  -0.1250000), wk =   0.0625000
        k(   14) = (  -0.3750000   0.1250000   0.1250000), wk =   0.0625000
        k(   15) = (  -0.1250000   0.3750000   0.1250000), wk =   0.0625000
        k(   16) = (  -0.1250000  -0.3750000  -0.1250000), wk =   0.0625000
        k(   17) = (   0.1250000   0.3750000  -0.1250000), wk =   0.0625000
        k(   18) = (   0.1250000  -0.3750000   0.1250000), wk =   0.0625000
        k(   19) = (  -0.1250000  -0.3750000   0.3750000), wk =   0.0625000
        k(   20) = (  -0.1250000   0.3750000  -0.3750000), wk =   0.0625000
        k(   21) = (   0.1250000  -0.3750000  -0.3750000), wk =   0.0625000
        k(   22) = (   0.3750000   0.1250000  -0.3750000), wk =   0.0625000
        k(   23) = (  -0.3750000  -0.1250000  -0.3750000), wk =   0.0625000
        k(   24) = (   0.3750000  -0.1250000   0.3750000), wk =   0.0625000
        k(   25) = (  -0.3750000   0.1250000   0.3750000), wk =   0.0625000
        k(   26) = (   0.3750000  -0.3750000   0.1250000), wk =   0.0625000
        k(   27) = (  -0.3750000  -0.3750000  -0.1250000), wk =   0.0625000
        k(   28) = (   0.3750000   0.3750000  -0.1250000), wk =   0.0625000
        k(   29) = (  -0.3750000   0.3750000   0.1250000), wk =   0.0625000
        k(   30) = (  -0.3750000  -0.3750000   0.3750000), wk =   0.0625000
        k(   31) = (  -0.3750000   0.3750000  -0.3750000), wk =   0.0625000
        k(   32) = (   0.3750000  -0.3750000  -0.3750000), wk =   0.0625000

     Dense  grid:     3695 G-vectors     FFT dimensions: (  20,  20,  20)

     Estimated max dynamical RAM per process >      10.80 MB

     Initial potential from superposition of free atoms

     starting charge   11.99084, renormalised to   12.00000
     Starting wfcs are   16 randomized atomic wfcs
     Checking if some PAW data can be deallocated... 

     total cpu time spent up to now is        3.9 secs

     Self-consistent Calculation

     iteration #  1     ecut=    90.00 Ry     beta= 0.10
     Davidson diagonalization with overlap
     ethr =  1.00E-02,  avg # of iterations =  4.9

     total cpu time spent up to now is        6.7 secs

     total energy              =    -141.65279439 Ry
     Harris-Foulkes estimate   =    -141.80706870 Ry
     estimated scf accuracy    <       0.18120335 Ry

     iteration #  2     ecut=    90.00 Ry     beta= 0.10
     Davidson diagonalization with overlap
     ethr =  1.51E-03,  avg # of iterations =  1.0

     total cpu time spent up to now is        8.1 secs

     total energy              =    -141.16259700 Ry
     Harris-Foulkes estimate   =    -141.65536295 Ry
     estimated scf accuracy    <       0.15204117 Ry

     iteration #  3     ecut=    90.00 Ry     beta= 0.10
     Davidson diagonalization with overlap
     ethr =  1.27E-03,  avg # of iterations =  2.0

     total cpu time spent up to now is        8.7 secs

     total energy              =    -141.24436085 Ry
     Harris-Foulkes estimate   =    -141.25585772 Ry
     estimated scf accuracy    <       0.01565940 Ry

     iteration #  4     ecut=    90.00 Ry     beta= 0.10
     Davidson diagonalization with overlap
     ethr =  1.30E-04,  avg # of iterations =  1.0

     total cpu time spent up to now is        9.3 secs

     total energy              =    -141.24159129 Ry
     Harris-Foulkes estimate   =    -141.24476406 Ry
     estimated scf accuracy    <       0.01258659 Ry

     iteration #  5     ecut=    90.00 Ry     beta= 0.10
     Davidson diagonalization with overlap
     ethr =  1.05E-04,  avg # of iterations =  1.0

     total cpu time spent up to now is        9.9 secs

     total energy              =    -141.24337343 Ry
     Harris-Foulkes estimate   =    -141.24264715 Ry
     estimated scf accuracy    <       0.00084797 Ry

     iteration #  6     ecut=    90.00 Ry     beta= 0.10
     Davidson diagonalization with overlap
     ethr =  7.07E-06,  avg # of iterations =  2.5

     total cpu time spent up to now is       10.6 secs

     total energy              =    -141.24365580 Ry
     Harris-Foulkes estimate   =    -141.24364574 Ry
     estimated scf accuracy    <       0.00012177 Ry

     iteration #  7     ecut=    90.00 Ry     beta= 0.10
     Davidson diagonalization with overlap
     ethr =  1.01E-06,  avg # of iterations =  1.2

     total cpu time spent up to now is       11.2 secs

     total energy              =    -141.24277164 Ry
     Harris-Foulkes estimate   =    -141.24365800 Ry
     estimated scf accuracy    <       0.00010290 Ry

     iteration #  8     ecut=    90.00 Ry     beta= 0.10
     Davidson diagonalization with overlap
     ethr =  8.57E-07,  avg # of iterations =  2.4

     total cpu time spent up to now is       11.8 secs

     total energy              =    -141.24295433 Ry
     Harris-Foulkes estimate   =    -141.24285101 Ry
     estimated scf accuracy    <       0.00004282 Ry

     iteration #  9     ecut=    90.00 Ry     beta= 0.10
     Davidson diagonalization with overlap
     ethr =  3.57E-07,  avg # of iterations =  2.0

     total cpu time spent up to now is       12.5 secs

     total energy              =    -141.24282121 Ry
     Harris-Foulkes estimate   =    -141.24296258 Ry
     estimated scf accuracy    <       0.00000827 Ry

     iteration # 10     ecut=    90.00 Ry     beta= 0.10
     Davidson diagonalization with overlap
     ethr =  6.89E-08,  avg # of iterations =  3.0

     total cpu time spent up to now is       13.2 secs

     total energy              =    -141.24283316 Ry
     Harris-Foulkes estimate   =    -141.24283311 Ry
     estimated scf accuracy    <       0.00000163 Ry

     iteration # 11     ecut=    90.00 Ry     beta= 0.10
     Davidson diagonalization with overlap
     ethr =  1.36E-08,  avg # of iterations =  1.0

     total cpu time spent up to now is       13.8 secs

     End of self-consistent calculation

          k = 0.1250 0.1250 0.1250 (   952 PWs)   bands (ev):

    30.9112  41.4354  41.4546  41.4733  52.4288  52.4491  52.4692  54.9295
    54.9394  54.9494

          k = 0.1250 0.1250 0.3750 (   950 PWs)   bands (ev):

    34.4043  39.0111  43.9405  43.9594  51.8104  51.8277  54.8763  54.8849
    55.6920  61.5160

          k = 0.1250 0.3750 0.3750 (   953 PWs)   bands (ev):

    37.4196  41.6547  41.6917  44.5469  50.4928  52.9056  52.9547  57.0457
    57.5673  60.7355

          k = 0.3750 0.3750 0.3750 (   958 PWs)   bands (ev):

    39.8855  43.9743  44.0123  44.0501  47.7736  47.8151  47.8566  51.6492
    66.9737  66.9772

          k =-0.1250-0.1250 0.1250 (   952 PWs)   bands (ev):

    30.9112  41.4394  41.4545  41.4693  52.4331  52.4490  52.4650  54.9316
    54.9394  54.9473

          k =-0.1250 0.1250-0.1250 (   952 PWs)   bands (ev):

    30.9112  41.4433  41.4545  41.4654  52.4372  52.4491  52.4608  54.9336
    54.9394  54.9453

          k = 0.1250-0.1250-0.1250 (   952 PWs)   bands (ev):

    30.9112  41.4412  41.4545  41.4675  52.4350  52.4491  52.4630  54.9326
    54.9394  54.9463

          k =-0.1250-0.1250 0.3750 (   950 PWs)   bands (ev):

    34.4042  39.0111  43.9405  43.9593  51.8105  51.8277  54.8763  54.8850
    55.6918  61.5157

          k =-0.1250 0.1250-0.3750 (   950 PWs)   bands (ev):

    34.4042  39.0111  43.9456  43.9543  51.8151  51.8230  54.8786  54.8826
    55.6919  61.5156

          k = 0.1250-0.1250-0.3750 (   950 PWs)   bands (ev):

    34.4042  39.0111  43.9457  43.9543  51.8151  51.8230  54.8786  54.8826
    55.6921  61.5153

          k = 0.3750-0.1250 0.1250 (   950 PWs)   bands (ev):

    34.4043  39.0110  43.9456  43.9544  51.8149  51.8229  54.8788  54.8828
    55.6920  61.5156

          k =-0.3750-0.1250-0.1250 (   950 PWs)   bands (ev):

    34.4043  39.0109  43.9420  43.9580  51.8118  51.8265  54.8766  54.8839
    55.6926  61.5157

          k = 0.3750 0.1250-0.1250 (   950 PWs)   bands (ev):

    34.4043  39.0109  43.9456  43.9544  51.8149  51.8229  54.8788  54.8828
    55.6921  61.5157

          k =-0.3750 0.1250 0.1250 (   950 PWs)   bands (ev):

    34.4043  39.0110  43.9419  43.9580  51.8119  51.8266  54.8766  54.8840
    55.6923  61.5158

          k =-0.1250 0.3750 0.1250 (   950 PWs)   bands (ev):

    34.4043  39.0109  43.9489  43.9513  51.8180  51.8202  54.8799  54.8811
    55.6920  61.5157

          k =-0.1250-0.3750-0.1250 (   950 PWs)   bands (ev):

    34.4043  39.0109  43.9454  43.9549  51.8147  51.8233  54.8784  54.8828
    55.6921  61.5158

          k = 0.1250 0.3750-0.1250 (   950 PWs)   bands (ev):

    34.4043  39.0109  43.9489  43.9513  51.8179  51.8202  54.8798  54.8810
    55.6923  61.5157

          k = 0.1250-0.3750 0.1250 (   950 PWs)   bands (ev):

    34.4043  39.0109  43.9454  43.9548  51.8147  51.8234  54.8784  54.8827
    55.6919  61.5158

          k =-0.1250-0.3750 0.3750 (   953 PWs)   bands (ev):

    37.4196  41.6632  41.6833  44.5467  50.4930  52.9166  52.9435  57.0451
    57.5682  60.7344

          k =-0.1250 0.3750-0.3750 (   953 PWs)   bands (ev):

    37.4196  41.6632  41.6833  44.5468  50.4930  52.9166  52.9434  57.0447
    57.5687  60.7351

          k = 0.1250-0.3750-0.3750 (   953 PWs)   bands (ev):

    37.4196  41.6547  41.6917  44.5469  50.4929  52.9056  52.9547  57.0453
    57.5675  60.7321

          k = 0.3750 0.1250-0.3750 (   953 PWs)   bands (ev):

    37.4196  41.6704  41.6760  44.5468  50.4928  52.9265  52.9339  57.0458
    57.5675  60.7357

          k =-0.3750-0.1250-0.3750 (   953 PWs)   bands (ev):

    37.4196  41.6623  41.6841  44.5467  50.4931  52.9158  52.9447  57.0460
    57.5671  60.7331

          k = 0.3750-0.1250 0.3750 (   953 PWs)   bands (ev):

    37.4196  41.6623  41.6841  44.5467  50.4929  52.9157  52.9446  57.0461
    57.5672  60.7337

          k =-0.3750 0.1250 0.3750 (   953 PWs)   bands (ev):

    37.4196  41.6704  41.6760  44.5468  50.4930  52.9266  52.9340  57.0454
    57.5675  60.7362

          k = 0.3750-0.3750 0.1250 (   953 PWs)   bands (ev):

    37.4197  41.6633  41.6831  44.5468  50.4927  52.9168  52.9433  57.0460
    57.5673  60.7342

          k =-0.3750-0.3750-0.1250 (   953 PWs)   bands (ev):

    37.4197  41.6515  41.6949  44.5467  50.4931  52.9012  52.9590  57.0439
    57.5692  60.7303

          k = 0.3750 0.3750-0.1250 (   953 PWs)   bands (ev):

    37.4197  41.6515  41.6949  44.5467  50.4929  52.9011  52.9589  57.0460
    57.5672  60.7311

          k =-0.3750 0.3750 0.1250 (   953 PWs)   bands (ev):

    37.4197  41.6632  41.6831  44.5468  50.4930  52.9169  52.9434  57.0414
    57.5718  60.7343

          k =-0.3750-0.3750 0.3750 (   958 PWs)   bands (ev):

    39.8854  43.9822  44.0123  44.0421  47.7823  47.8150  47.8479  51.6493
    66.9723  66.9756

          k =-0.3750 0.3750-0.3750 (   958 PWs)   bands (ev):

    39.8854  43.9900  44.0123  44.0343  47.7908  47.8151  47.8394  51.6494
    66.9735  66.9765

          k = 0.3750-0.3750-0.3750 (   958 PWs)   bands (ev):

    39.8854  43.9859  44.0122  44.0384  47.7864  47.8151  47.8440  51.6493
    66.9731  66.9770

     the Fermi energy is    52.6605 ev

!    total energy              =    -141.24283152 Ry
     Harris-Foulkes estimate   =    -141.24283319 Ry
     estimated scf accuracy    <       0.00000092 Ry

     total all-electron energy =     -1925.813954 Ry

     The total energy is the sum of the following terms:

     one-electron contribution =      58.67251822 Ry
     hartree contribution      =       0.21192918 Ry
     xc contribution           =     -17.28495714 Ry
     ewald contribution        =     -40.85514765 Ry
     one-center paw contrib.   =    -141.98653489 Ry
     smearing contrib. (-TS)   =      -0.00063925 Ry

     convergence has been achieved in  11 iterations

     Forces acting on atoms (cartesian axes, Ry/au):

     atom    1 type  1   force =     0.00201631   -0.00040448    0.01641695
     atom    2 type  1   force =    -0.00324705    0.00367574    0.01637278
     atom    3 type  1   force =    -0.00058754   -0.00066546   -0.01728000
     atom    4 type  1   force =     0.00181829   -0.00260579   -0.01550974

     Total force =     0.033405     Total SCF correction =     0.000006


     Computing stress (Cartesian axis) and pressure

          total   stress  (Ry/bohr**3)                   (kbar)     P=59674.39
   0.40566384   0.00000119   0.00000077      59675.20      0.18      0.11
   0.00000119   0.40565243  -0.00000113          0.18  59673.52     -0.17
   0.00000077  -0.00000113   0.40565872          0.11     -0.17  59674.45


     Writing output data file fe_scf_fcc_2.save/

     init_run     :      2.34s CPU      2.38s WALL (       1 calls)
     electrons    :      9.78s CPU      9.94s WALL (       1 calls)
     forces       :      0.08s CPU      0.08s WALL (       1 calls)
     stress       :      0.26s CPU      0.27s WALL (       1 calls)

     Called by init_run:
     wfcinit      :      0.69s CPU      0.71s WALL (       1 calls)
     potinit      :      0.75s CPU      0.77s WALL (       1 calls)
     hinit0       :      0.87s CPU      0.87s WALL (       1 calls)

     Called by electrons:
     c_bands      :      5.48s CPU      5.57s WALL (      11 calls)
     sum_band     :      0.80s CPU      0.84s WALL (      11 calls)
     v_of_rho     :      0.10s CPU      0.10s WALL (      12 calls)
     newd         :      0.08s CPU      0.09s WALL (      12 calls)
     PAW_pot      :      4.06s CPU      4.11s WALL (      12 calls)
     mix_rho      :      0.00s CPU      0.01s WALL (      11 calls)

     Called by c_bands:
     init_us_2    :      0.38s CPU      0.37s WALL (     800 calls)
     cegterg      :      4.93s CPU      5.04s WALL (     352 calls)

     Called by sum_band:
     sum_band:bec :      0.00s CPU      0.00s WALL (     352 calls)
     addusdens    :      0.05s CPU      0.05s WALL (      11 calls)

     Called by *egterg:
     h_psi        :      3.64s CPU      3.72s WALL (    1085 calls)
     s_psi        :      0.38s CPU      0.38s WALL (    1085 calls)
     g_psi        :      0.04s CPU      0.06s WALL (     701 calls)
     cdiaghg      :      0.34s CPU      0.33s WALL (    1053 calls)

     Called by h_psi:
     h_psi:pot    :      3.59s CPU      3.68s WALL (    1085 calls)
     h_psi:calbec :      0.38s CPU      0.41s WALL (    1085 calls)
     vloc_psi     :      2.77s CPU      2.86s WALL (    1085 calls)
     add_vuspsi   :      0.43s CPU      0.41s WALL (    1085 calls)

     General routines
     calbec       :      0.55s CPU      0.56s WALL (    1597 calls)
     fft          :      0.02s CPU      0.02s WALL (     158 calls)
     ffts         :      0.00s CPU      0.00s WALL (      11 calls)
     fftw         :      2.75s CPU      2.85s WALL (   22162 calls)

     Parallel routines

     PWSCF        :    13.92s CPU        14.17s WALL


   This run was terminated on:   2:51:20  20Oct2019            

=------------------------------------------------------------------------------=
   JOB DONE.
=------------------------------------------------------------------------------=
