
     Program PWSCF v.6.3 starts on 20Oct2019 at  2:56: 6 

     This program is part of the open-source Quantum ESPRESSO suite
     for quantum simulation of materials; please cite
         "P. Giannozzi et al., J. Phys.:Condens. Matter 21 395502 (2009);
         "P. Giannozzi et al., J. Phys.:Condens. Matter 29 465901 (2017);
          URL http://www.quantum-espresso.org", 
     in publications or presentations arising from this work. More details at
     http://www.quantum-espresso.org/quote

     Parallel version (MPI), running on     1 processors

     MPI processes distributed on     1 nodes
     Reading input from /cloud/Code/python/py_pwscf_converge/src/example/wd/runpwscf/file_10138.in
Warning: card &IONS ignored
Warning: card ION_DYNAMICS = 'BFGS', ignored
Warning: card / ignored
Warning: card &CELL ignored
Warning: card CELL_DYNAMICS = 'BFGS', ignored
Warning: card CELL_FACTOR = 2.0, ignored
Warning: card PRESS = 0.0, ignored
Warning: card / ignored

     Current dimensions of program PWSCF are:
     Max number of different atomic species (ntypx) = 10
     Max number of k-points (npk) =  40000
     Max angular momentum in pseudopotentials (lmaxx) =  3
               file Al.pbe-nl-kjpaw_psl.1.0.0.UPF: wavefunction(s)  3S 3P renormalized

     Subspace diagonalization in iterative solution of the eigenvalue problem:
     a serial algorithm will be used


     G-vector sticks info
     --------------------
     sticks:   dense  smooth     PW     G-vecs:    dense   smooth      PW
     Sum         341     341    113                 4697     4697     925



     bravais-lattice index     =            0
     lattice parameter (alat)  =       4.0400  a.u.
     unit-cell volume          =      65.9393 (a.u.)^3
     number of atoms/cell      =            4
     number of atomic types    =            1
     number of electrons       =        12.00
     number of Kohn-Sham states=           10
     kinetic-energy cutoff     =      70.0000  Ry
     charge density cutoff     =     260.0000  Ry
     convergence threshold     =      1.0E-06
     mixing beta               =       0.1000
     number of iterations used =           10  TF        mixing
     Exchange-correlation      = SLA PW PBX PBC ( 1  4  3  4 0 0)

     celldm(1)=   4.040000  celldm(2)=   0.000000  celldm(3)=   0.000000
     celldm(4)=   0.000000  celldm(5)=   0.000000  celldm(6)=   0.000000

     crystal axes: (cart. coord. in units of alat)
               a(1) = (   1.000000   0.000000   0.000000 )  
               a(2) = (   0.000000   1.000000   0.000000 )  
               a(3) = (   0.000000   0.000000   1.000000 )  

     reciprocal axes: (cart. coord. in units 2 pi/alat)
               b(1) = (  1.000000  0.000000  0.000000 )  
               b(2) = (  0.000000  1.000000  0.000000 )  
               b(3) = (  0.000000  0.000000  1.000000 )  


     PseudoPot. # 1 for Al read from file:
     /opt/pp/Al.pbe-nl-kjpaw_psl.1.0.0.UPF
     MD5 check sum: 1b67f78b73fe58c7924490f171ce8a1e
     Pseudo is Projector augmented-wave + core cor, Zval =  3.0
     Generated using "atomic" code by A. Dal Corso v.6.3
     Shape of augmentation charge: PSQ
     Using radial grid of 1135 points,  4 beta functions with: 
                l(1) =   0
                l(2) =   0
                l(3) =   1
                l(4) =   1
     Q(r) pseudized with 0 coefficients 


     atomic species   valence    mass     pseudopotential
        Al             3.00    26.98200     Al( 1.00)

     No symmetry found



   Cartesian axes

     site n.     atom                  positions (alat units)
         1           Al  tau(   1) = (  -0.0001235   0.0000359   0.0002572  )
         2           Al  tau(   2) = (   0.5003009   0.4992819   0.0002658  )
         3           Al  tau(   3) = (   0.4996490   0.0001153   0.5011170  )
         4           Al  tau(   4) = (  -0.0000756   0.5008267   0.5006943  )

     number of k points=    32  Marzari-Vanderbilt smearing, width (Ry)=  0.0200
                       cart. coord. in units 2pi/alat
        k(    1) = (   0.1250000   0.1250000   0.1250000), wk =   0.0625000
        k(    2) = (   0.1250000   0.1250000   0.3750000), wk =   0.0625000
        k(    3) = (   0.1250000   0.3750000   0.3750000), wk =   0.0625000
        k(    4) = (   0.3750000   0.3750000   0.3750000), wk =   0.0625000
        k(    5) = (  -0.1250000  -0.1250000   0.1250000), wk =   0.0625000
        k(    6) = (  -0.1250000   0.1250000  -0.1250000), wk =   0.0625000
        k(    7) = (   0.1250000  -0.1250000  -0.1250000), wk =   0.0625000
        k(    8) = (  -0.1250000  -0.1250000   0.3750000), wk =   0.0625000
        k(    9) = (  -0.1250000   0.1250000  -0.3750000), wk =   0.0625000
        k(   10) = (   0.1250000  -0.1250000  -0.3750000), wk =   0.0625000
        k(   11) = (   0.3750000  -0.1250000   0.1250000), wk =   0.0625000
        k(   12) = (  -0.3750000  -0.1250000  -0.1250000), wk =   0.0625000
        k(   13) = (   0.3750000   0.1250000  -0.1250000), wk =   0.0625000
        k(   14) = (  -0.3750000   0.1250000   0.1250000), wk =   0.0625000
        k(   15) = (  -0.1250000   0.3750000   0.1250000), wk =   0.0625000
        k(   16) = (  -0.1250000  -0.3750000  -0.1250000), wk =   0.0625000
        k(   17) = (   0.1250000   0.3750000  -0.1250000), wk =   0.0625000
        k(   18) = (   0.1250000  -0.3750000   0.1250000), wk =   0.0625000
        k(   19) = (  -0.1250000  -0.3750000   0.3750000), wk =   0.0625000
        k(   20) = (  -0.1250000   0.3750000  -0.3750000), wk =   0.0625000
        k(   21) = (   0.1250000  -0.3750000  -0.3750000), wk =   0.0625000
        k(   22) = (   0.3750000   0.1250000  -0.3750000), wk =   0.0625000
        k(   23) = (  -0.3750000  -0.1250000  -0.3750000), wk =   0.0625000
        k(   24) = (   0.3750000  -0.1250000   0.3750000), wk =   0.0625000
        k(   25) = (  -0.3750000   0.1250000   0.3750000), wk =   0.0625000
        k(   26) = (   0.3750000  -0.3750000   0.1250000), wk =   0.0625000
        k(   27) = (  -0.3750000  -0.3750000  -0.1250000), wk =   0.0625000
        k(   28) = (   0.3750000   0.3750000  -0.1250000), wk =   0.0625000
        k(   29) = (  -0.3750000   0.3750000   0.1250000), wk =   0.0625000
        k(   30) = (  -0.3750000  -0.3750000   0.3750000), wk =   0.0625000
        k(   31) = (  -0.3750000   0.3750000  -0.3750000), wk =   0.0625000
        k(   32) = (   0.3750000  -0.3750000  -0.3750000), wk =   0.0625000

     Dense  grid:     4697 G-vectors     FFT dimensions: (  24,  24,  24)

     Estimated max dynamical RAM per process >      10.87 MB

     Initial potential from superposition of free atoms

     starting charge   11.99084, renormalised to   12.00000
     Starting wfcs are   16 randomized atomic wfcs
     Checking if some PAW data can be deallocated... 

     total cpu time spent up to now is        4.4 secs

     Self-consistent Calculation

     iteration #  1     ecut=    70.00 Ry     beta= 0.10
     Davidson diagonalization with overlap
     ethr =  1.00E-02,  avg # of iterations =  4.9

     total cpu time spent up to now is        8.9 secs

     total energy              =    -141.65272981 Ry
     Harris-Foulkes estimate   =    -141.80701123 Ry
     estimated scf accuracy    <       0.18103629 Ry

     iteration #  2     ecut=    70.00 Ry     beta= 0.10
     Davidson diagonalization with overlap
     ethr =  1.51E-03,  avg # of iterations =  1.0

     total cpu time spent up to now is       11.5 secs

     total energy              =    -141.16268424 Ry
     Harris-Foulkes estimate   =    -141.65523816 Ry
     estimated scf accuracy    <       0.15207310 Ry

     iteration #  3     ecut=    70.00 Ry     beta= 0.10
     Davidson diagonalization with overlap
     ethr =  1.27E-03,  avg # of iterations =  2.0

     total cpu time spent up to now is       12.7 secs

     total energy              =    -141.24387508 Ry
     Harris-Foulkes estimate   =    -141.25655296 Ry
     estimated scf accuracy    <       0.01575530 Ry

     iteration #  4     ecut=    70.00 Ry     beta= 0.10
     Davidson diagonalization with overlap
     ethr =  1.31E-04,  avg # of iterations =  1.0

     total cpu time spent up to now is       13.6 secs

     total energy              =    -141.24144061 Ry
     Harris-Foulkes estimate   =    -141.24431771 Ry
     estimated scf accuracy    <       0.01252425 Ry

     iteration #  5     ecut=    70.00 Ry     beta= 0.10
     Davidson diagonalization with overlap
     ethr =  1.04E-04,  avg # of iterations =  1.0

     total cpu time spent up to now is       14.5 secs

     total energy              =    -141.24344327 Ry
     Harris-Foulkes estimate   =    -141.24252258 Ry
     estimated scf accuracy    <       0.00074524 Ry

     iteration #  6     ecut=    70.00 Ry     beta= 0.10
     Davidson diagonalization with overlap
     ethr =  6.21E-06,  avg # of iterations =  2.8

     total cpu time spent up to now is       15.5 secs

     total energy              =    -141.24369674 Ry
     Harris-Foulkes estimate   =    -141.24370693 Ry
     estimated scf accuracy    <       0.00009815 Ry

     iteration #  7     ecut=    70.00 Ry     beta= 0.10
     Davidson diagonalization with overlap
     ethr =  8.18E-07,  avg # of iterations =  1.1

     total cpu time spent up to now is       16.4 secs

     total energy              =    -141.24270098 Ry
     Harris-Foulkes estimate   =    -141.24369793 Ry
     estimated scf accuracy    <       0.00008230 Ry

     iteration #  8     ecut=    70.00 Ry     beta= 0.10
     Davidson diagonalization with overlap
     ethr =  6.86E-07,  avg # of iterations =  2.8

     total cpu time spent up to now is       17.4 secs

     total energy              =    -141.24282462 Ry
     Harris-Foulkes estimate   =    -141.24277637 Ry
     estimated scf accuracy    <       0.00001262 Ry

     iteration #  9     ecut=    70.00 Ry     beta= 0.10
     Davidson diagonalization with overlap
     ethr =  1.05E-07,  avg # of iterations =  2.0

     total cpu time spent up to now is       18.3 secs

     total energy              =    -141.24273377 Ry
     Harris-Foulkes estimate   =    -141.24282624 Ry
     estimated scf accuracy    <       0.00000796 Ry

     iteration # 10     ecut=    70.00 Ry     beta= 0.10
     Davidson diagonalization with overlap
     ethr =  6.63E-08,  avg # of iterations =  3.0

     total cpu time spent up to now is       19.5 secs

     End of self-consistent calculation

          k = 0.1250 0.1250 0.1250 (   666 PWs)   bands (ev):

    30.9166  41.4376  41.4567  41.4754  52.4298  52.4501  52.4702  54.9341
    54.9439  54.9539

          k = 0.1250 0.1250 0.3750 (   655 PWs)   bands (ev):

    34.4093  39.0152  43.9433  43.9622  51.8132  51.8305  54.8795  54.8881
    55.6931  61.5177

          k = 0.1250 0.3750 0.3750 (   646 PWs)   bands (ev):

    37.4245  41.6590  41.6960  44.5509  50.4954  52.9079  52.9570  57.0477
    57.5695  60.7361

          k = 0.3750 0.3750 0.3750 (   657 PWs)   bands (ev):

    39.8899  43.9785  44.0164  44.0542  47.7765  47.8180  47.8594  51.6518
    66.9752  66.9789

          k =-0.1250-0.1250 0.1250 (   666 PWs)   bands (ev):

    30.9166  41.4416  41.4567  41.4714  52.4340  52.4500  52.4659  54.9361
    54.9440  54.9518

          k =-0.1250 0.1250-0.1250 (   666 PWs)   bands (ev):

    30.9166  41.4454  41.4567  41.4676  52.4381  52.4500  52.4618  54.9382
    54.9439  54.9498

          k = 0.1250-0.1250-0.1250 (   666 PWs)   bands (ev):

    30.9166  41.4434  41.4567  41.4696  52.4360  52.4501  52.4640  54.9371
    54.9439  54.9508

          k =-0.1250-0.1250 0.3750 (   655 PWs)   bands (ev):

    34.4093  39.0153  43.9433  43.9621  51.8132  51.8305  54.8795  54.8882
    55.6928  61.5179

          k =-0.1250 0.1250-0.3750 (   655 PWs)   bands (ev):

    34.4093  39.0153  43.9484  43.9570  51.8179  51.8258  54.8818  54.8858
    55.6929  61.5177

          k = 0.1250-0.1250-0.3750 (   655 PWs)   bands (ev):

    34.4093  39.0152  43.9484  43.9571  51.8178  51.8258  54.8818  54.8858
    55.6931  61.5172

          k = 0.3750-0.1250 0.1250 (   655 PWs)   bands (ev):

    34.4093  39.0152  43.9484  43.9571  51.8177  51.8257  54.8820  54.8860
    55.6930  61.5177

          k =-0.3750-0.1250-0.1250 (   655 PWs)   bands (ev):

    34.4094  39.0151  43.9448  43.9608  51.8146  51.8292  54.8798  54.8871
    55.6937  61.5179

          k = 0.3750 0.1250-0.1250 (   655 PWs)   bands (ev):

    34.4094  39.0151  43.9484  43.9572  51.8176  51.8257  54.8820  54.8860
    55.6931  61.5179

          k =-0.3750 0.1250 0.1250 (   655 PWs)   bands (ev):

    34.4093  39.0152  43.9447  43.9608  51.8146  51.8293  54.8798  54.8872
    55.6933  61.5179

          k =-0.1250 0.3750 0.1250 (   655 PWs)   bands (ev):

    34.4093  39.0151  43.9517  43.9541  51.8208  51.8230  54.8831  54.8843
    55.6930  61.5179

          k =-0.1250-0.3750-0.1250 (   655 PWs)   bands (ev):

    34.4094  39.0151  43.9482  43.9576  51.8175  51.8261  54.8816  54.8860
    55.6931  61.5179

          k = 0.1250 0.3750-0.1250 (   655 PWs)   bands (ev):

    34.4093  39.0151  43.9517  43.9541  51.8207  51.8229  54.8830  54.8842
    55.6934  61.5178

          k = 0.1250-0.3750 0.1250 (   655 PWs)   bands (ev):

    34.4093  39.0151  43.9482  43.9576  51.8175  51.8261  54.8816  54.8859
    55.6930  61.5179

          k =-0.1250-0.3750 0.3750 (   646 PWs)   bands (ev):

    37.4244  41.6675  41.6876  44.5508  50.4955  52.9190  52.9458  57.0471
    57.5704  60.7362

          k =-0.1250 0.3750-0.3750 (   646 PWs)   bands (ev):

    37.4244  41.6675  41.6876  44.5508  50.4955  52.9190  52.9458  57.0467
    57.5709  60.7363

          k = 0.1250-0.3750-0.3750 (   646 PWs)   bands (ev):

    37.4245  41.6590  41.6960  44.5509  50.4954  52.9079  52.9570  57.0473
    57.5698  60.7347

          k = 0.3750 0.1250-0.3750 (   646 PWs)   bands (ev):

    37.4245  41.6747  41.6803  44.5508  50.4953  52.9288  52.9363  57.0478
    57.5697  60.7381

          k =-0.3750-0.1250-0.3750 (   646 PWs)   bands (ev):

    37.4245  41.6666  41.6884  44.5507  50.4956  52.9182  52.9470  57.0480
    57.5693  60.7353

          k = 0.3750-0.1250 0.3750 (   646 PWs)   bands (ev):

    37.4245  41.6667  41.6884  44.5507  50.4954  52.9181  52.9469  57.0481
    57.5695  60.7365

          k =-0.3750 0.1250 0.3750 (   646 PWs)   bands (ev):

    37.4245  41.6747  41.6803  44.5508  50.4955  52.9289  52.9363  57.0474
    57.5697  60.7376

          k = 0.3750-0.3750 0.1250 (   646 PWs)   bands (ev):

    37.4245  41.6676  41.6874  44.5509  50.4952  52.9191  52.9456  57.0480
    57.5695  60.7355

          k =-0.3750-0.3750-0.1250 (   646 PWs)   bands (ev):

    37.4245  41.6559  41.6992  44.5507  50.4955  52.9036  52.9613  57.0459
    57.5715  60.7317

          k = 0.3750 0.3750-0.1250 (   646 PWs)   bands (ev):

    37.4245  41.6559  41.6992  44.5508  50.4954  52.9035  52.9612  57.0480
    57.5694  60.7318

          k =-0.3750 0.3750 0.1250 (   646 PWs)   bands (ev):

    37.4245  41.6676  41.6874  44.5508  50.4955  52.9193  52.9458  57.0433
    57.5741  60.7384

          k =-0.3750-0.3750 0.3750 (   657 PWs)   bands (ev):

    39.8898  43.9864  44.0165  44.0462  47.7852  47.8179  47.8507  51.6519
    66.9747  66.9785

          k =-0.3750 0.3750-0.3750 (   657 PWs)   bands (ev):

    39.8898  43.9941  44.0164  44.0384  47.7937  47.8179  47.8422  51.6520
    66.9751  66.9778

          k = 0.3750-0.3750-0.3750 (   657 PWs)   bands (ev):

    39.8898  43.9900  44.0164  44.0425  47.7893  47.8180  47.8468  51.6519
    66.9747  66.9770

     the Fermi energy is    52.6619 ev

!    total energy              =    -141.24274311 Ry
     Harris-Foulkes estimate   =    -141.24274383 Ry
     estimated scf accuracy    <       0.00000073 Ry

     total all-electron energy =     -1925.813865 Ry

     The total energy is the sum of the following terms:

     one-electron contribution =      58.67259842 Ry
     hartree contribution      =       0.21196081 Ry
     xc contribution           =     -17.28525242 Ry
     ewald contribution        =     -40.85514762 Ry
     one-center paw contrib.   =    -141.98628524 Ry
     smearing contrib. (-TS)   =      -0.00061705 Ry

     convergence has been achieved in  10 iterations

     Forces acting on atoms (cartesian axes, Ry/au):

     atom    1 type  1   force =     0.00202861   -0.00041072    0.01637940
     atom    2 type  1   force =    -0.00328671    0.00371071    0.01635010
     atom    3 type  1   force =    -0.00056180   -0.00064516   -0.01727483
     atom    4 type  1   force =     0.00181991   -0.00265482   -0.01545466

     Total force =     0.033359     Total SCF correction =     0.000024


     Computing stress (Cartesian axis) and pressure

          total   stress  (Ry/bohr**3)                   (kbar)     P=59671.15
   0.40564169   0.00000116   0.00000094      59671.94      0.17      0.14
   0.00000116   0.40563057  -0.00000084          0.17  59670.31     -0.12
   0.00000094  -0.00000084   0.40563662          0.14     -0.12  59671.20


     Writing output data file fe_scf_fcc_2.save/

     init_run     :      2.86s CPU      2.94s WALL (       1 calls)
     electrons    :     14.82s CPU     15.06s WALL (       1 calls)
     forces       :      0.08s CPU      0.08s WALL (       1 calls)
     stress       :      0.22s CPU      0.22s WALL (       1 calls)

     Called by init_run:
     wfcinit      :      1.20s CPU      1.24s WALL (       1 calls)
     potinit      :      0.80s CPU      0.81s WALL (       1 calls)
     hinit0       :      0.84s CPU      0.85s WALL (       1 calls)

     Called by electrons:
     c_bands      :      9.41s CPU      9.59s WALL (      10 calls)
     sum_band     :      1.60s CPU      1.63s WALL (      10 calls)
     v_of_rho     :      0.24s CPU      0.23s WALL (      11 calls)
     newd         :      0.12s CPU      0.13s WALL (      11 calls)
     PAW_pot      :      4.22s CPU      4.28s WALL (      11 calls)
     mix_rho      :      0.02s CPU      0.02s WALL (      10 calls)

     Called by c_bands:
     init_us_2    :      0.27s CPU      0.25s WALL (     736 calls)
     cegterg      :      9.04s CPU      9.23s WALL (     320 calls)

     Called by sum_band:
     sum_band:bec :      0.01s CPU      0.01s WALL (     320 calls)
     addusdens    :      0.07s CPU      0.07s WALL (      10 calls)

     Called by *egterg:
     h_psi        :      8.71s CPU      8.91s WALL (    1041 calls)
     s_psi        :      0.32s CPU      0.26s WALL (    1041 calls)
     g_psi        :      0.02s CPU      0.04s WALL (     689 calls)
     cdiaghg      :      0.29s CPU      0.34s WALL (    1009 calls)

     Called by h_psi:
     h_psi:pot    :      8.68s CPU      8.88s WALL (    1041 calls)
     h_psi:calbec :      0.29s CPU      0.30s WALL (    1041 calls)
     vloc_psi     :      8.10s CPU      8.27s WALL (    1041 calls)
     add_vuspsi   :      0.29s CPU      0.29s WALL (    1041 calls)

     General routines
     calbec       :      0.40s CPU      0.41s WALL (    1521 calls)
     fft          :      0.13s CPU      0.16s WALL (     147 calls)
     ffts         :      0.01s CPU      0.01s WALL (      10 calls)
     fftw         :      8.70s CPU      8.89s WALL (   20684 calls)

     Parallel routines

     PWSCF        :    19.42s CPU        19.78s WALL


   This run was terminated on:   2:56:26  20Oct2019            

=------------------------------------------------------------------------------=
   JOB DONE.
=------------------------------------------------------------------------------=
