
     Program PWSCF v.6.3 starts on 22Oct2019 at 19: 5:20 

     This program is part of the open-source Quantum ESPRESSO suite
     for quantum simulation of materials; please cite
         "P. Giannozzi et al., J. Phys.:Condens. Matter 21 395502 (2009);
         "P. Giannozzi et al., J. Phys.:Condens. Matter 29 465901 (2017);
          URL http://www.quantum-espresso.org", 
     in publications or presentations arising from this work. More details at
     http://www.quantum-espresso.org/quote

     Parallel version (MPI & OpenMP), running on      20 processor cores
     Number of MPI processes:                20
     Threads/MPI process:                     1

     MPI processes distributed on     1 nodes
     R & G space division:  proc/nbgrp/npool/nimage =      20
     Reading input from /rds/homes/b/bxp912/jobs/20191022_test/wd/runpwscf/file_10111.in
Warning: card &IONS ignored
Warning: card ION_DYNAMICS = 'BFGS', ignored
Warning: card / ignored
Warning: card &CELL ignored
Warning: card CELL_DYNAMICS = 'BFGS', ignored
Warning: card CELL_FACTOR = 2.0, ignored
Warning: card PRESS = 0.0, ignored
Warning: card / ignored

     Current dimensions of program PWSCF are:
     Max number of different atomic species (ntypx) = 10
     Max number of k-points (npk) =  40000
     Max angular momentum in pseudopotentials (lmaxx) =  3
     Message from routine read_upf::
     Pseudo file /rds/homes/b/bxp912/pp/Al.pbe-nl-kjpaw_psl.1.0.0.UPF has been successfully fixed on the fly.
To avoid this message in the future you can permanently fix 
 your pseudo files following instructions given in: 
https://gitlab.com/QEF/q-e/blob/master/upftools/how_to_fix_upf.md
               file Al.pbe-nl-kjpaw_psl.1.0.0.UPF: wavefunction(s)  3S 3P renormalized

     Subspace diagonalization in iterative solution of the eigenvalue problem:
     a serial algorithm will be used

 
     Parallelization info
     --------------------
     sticks:   dense  smooth     PW     G-vecs:    dense   smooth      PW
     Min          10      10      5                  114      114      41
     Max          11      11      6                  117      117      44
     Sum         213     213    109                 2301     2301     847
 


     bravais-lattice index     =            0
     lattice parameter (alat)  =       4.0400  a.u.
     unit-cell volume          =      65.9393 (a.u.)^3
     number of atoms/cell      =            4
     number of atomic types    =            1
     number of electrons       =        12.00
     number of Kohn-Sham states=           10
     kinetic-energy cutoff     =      65.0000  Ry
     charge density cutoff     =     160.0000  Ry
     convergence threshold     =      1.0E-06
     mixing beta               =       0.1000
     number of iterations used =           10  TF        mixing
     Exchange-correlation      = SLA PW PBX PBC ( 1  4  3  4 0 0)

     celldm(1)=   4.040000  celldm(2)=   0.000000  celldm(3)=   0.000000
     celldm(4)=   0.000000  celldm(5)=   0.000000  celldm(6)=   0.000000

     crystal axes: (cart. coord. in units of alat)
               a(1) = (   1.000000   0.000000   0.000000 )  
               a(2) = (   0.000000   1.000000   0.000000 )  
               a(3) = (   0.000000   0.000000   1.000000 )  

     reciprocal axes: (cart. coord. in units 2 pi/alat)
               b(1) = (  1.000000  0.000000  0.000000 )  
               b(2) = (  0.000000  1.000000  0.000000 )  
               b(3) = (  0.000000  0.000000  1.000000 )  


     PseudoPot. # 1 for Al read from file:
     /rds/homes/b/bxp912/pp/Al.pbe-nl-kjpaw_psl.1.0.0.UPF
     MD5 check sum: 339dbea23cf3ab9a065ad45c0f9085d7
     Pseudo is Projector augmented-wave + core cor, Zval =  3.0
     Generated using "atomic" code by A. Dal Corso v.5.1
     Shape of augmentation charge: PSQ
     Using radial grid of 1135 points,  4 beta functions with: 
                l(1) =   0
                l(2) =   0
                l(3) =   1
                l(4) =   1
     Q(r) pseudized with 0 coefficients 


     atomic species   valence    mass     pseudopotential
        Al             3.00    26.98200     Al( 1.00)

     No symmetry found



   Cartesian axes

     site n.     atom                  positions (alat units)
         1           Al  tau(   1) = (  -0.0001235   0.0000359   0.0002572  )
         2           Al  tau(   2) = (   0.5003009   0.4992819   0.0002658  )
         3           Al  tau(   3) = (   0.4996490   0.0001153   0.5011170  )
         4           Al  tau(   4) = (  -0.0000756   0.5008267   0.5006943  )

     number of k points=    32  Marzari-Vanderbilt smearing, width (Ry)=  0.0200
                       cart. coord. in units 2pi/alat
        k(    1) = (   0.1250000   0.1250000   0.1250000), wk =   0.0625000
        k(    2) = (   0.1250000   0.1250000   0.3750000), wk =   0.0625000
        k(    3) = (   0.1250000   0.3750000   0.3750000), wk =   0.0625000
        k(    4) = (   0.3750000   0.3750000   0.3750000), wk =   0.0625000
        k(    5) = (  -0.1250000  -0.1250000   0.1250000), wk =   0.0625000
        k(    6) = (  -0.1250000   0.1250000  -0.1250000), wk =   0.0625000
        k(    7) = (   0.1250000  -0.1250000  -0.1250000), wk =   0.0625000
        k(    8) = (  -0.1250000  -0.1250000   0.3750000), wk =   0.0625000
        k(    9) = (  -0.1250000   0.1250000  -0.3750000), wk =   0.0625000
        k(   10) = (   0.1250000  -0.1250000  -0.3750000), wk =   0.0625000
        k(   11) = (   0.3750000  -0.1250000   0.1250000), wk =   0.0625000
        k(   12) = (  -0.3750000  -0.1250000  -0.1250000), wk =   0.0625000
        k(   13) = (   0.3750000   0.1250000  -0.1250000), wk =   0.0625000
        k(   14) = (  -0.3750000   0.1250000   0.1250000), wk =   0.0625000
        k(   15) = (  -0.1250000   0.3750000   0.1250000), wk =   0.0625000
        k(   16) = (  -0.1250000  -0.3750000  -0.1250000), wk =   0.0625000
        k(   17) = (   0.1250000   0.3750000  -0.1250000), wk =   0.0625000
        k(   18) = (   0.1250000  -0.3750000   0.1250000), wk =   0.0625000
        k(   19) = (  -0.1250000  -0.3750000   0.3750000), wk =   0.0625000
        k(   20) = (  -0.1250000   0.3750000  -0.3750000), wk =   0.0625000
        k(   21) = (   0.1250000  -0.3750000  -0.3750000), wk =   0.0625000
        k(   22) = (   0.3750000   0.1250000  -0.3750000), wk =   0.0625000
        k(   23) = (  -0.3750000  -0.1250000  -0.3750000), wk =   0.0625000
        k(   24) = (   0.3750000  -0.1250000   0.3750000), wk =   0.0625000
        k(   25) = (  -0.3750000   0.1250000   0.3750000), wk =   0.0625000
        k(   26) = (   0.3750000  -0.3750000   0.1250000), wk =   0.0625000
        k(   27) = (  -0.3750000  -0.3750000  -0.1250000), wk =   0.0625000
        k(   28) = (   0.3750000   0.3750000  -0.1250000), wk =   0.0625000
        k(   29) = (  -0.3750000   0.3750000   0.1250000), wk =   0.0625000
        k(   30) = (  -0.3750000  -0.3750000   0.3750000), wk =   0.0625000
        k(   31) = (  -0.3750000   0.3750000  -0.3750000), wk =   0.0625000
        k(   32) = (   0.3750000  -0.3750000  -0.3750000), wk =   0.0625000

     Dense  grid:     2301 G-vectors     FFT dimensions: (  18,  18,  18)

     Estimated max dynamical RAM per process >       0.56 MB

     Estimated total dynamical RAM >      11.13 MB

     Initial potential from superposition of free atoms

     starting charge   11.99084, renormalised to   12.00000
     Starting wfcs are   16 randomized atomic wfcs
     Checking if some PAW data can be deallocated... 

     total cpu time spent up to now is        0.9 secs

     Self-consistent Calculation

     iteration #  1     ecut=    65.00 Ry     beta= 0.10
     Davidson diagonalization with overlap
     ethr =  1.00E-02,  avg # of iterations =  4.9

     total cpu time spent up to now is        1.1 secs

     total energy              =    -141.65247138 Ry
     Harris-Foulkes estimate   =    -141.80674223 Ry
     estimated scf accuracy    <       0.18105511 Ry

     iteration #  2     ecut=    65.00 Ry     beta= 0.10
     Davidson diagonalization with overlap
     ethr =  1.51E-03,  avg # of iterations =  1.0

     total cpu time spent up to now is        1.2 secs

     total energy              =    -141.16256587 Ry
     Harris-Foulkes estimate   =    -141.65503728 Ry
     estimated scf accuracy    <       0.15205123 Ry

     iteration #  3     ecut=    65.00 Ry     beta= 0.10
     Davidson diagonalization with overlap
     ethr =  1.27E-03,  avg # of iterations =  2.0

     total cpu time spent up to now is        1.3 secs

     total energy              =    -141.24367439 Ry
     Harris-Foulkes estimate   =    -141.25647260 Ry
     estimated scf accuracy    <       0.01575299 Ry

     iteration #  4     ecut=    65.00 Ry     beta= 0.10
     Davidson diagonalization with overlap
     ethr =  1.31E-04,  avg # of iterations =  1.0

     total cpu time spent up to now is        1.4 secs

     total energy              =    -141.24131337 Ry
     Harris-Foulkes estimate   =    -141.24411842 Ry
     estimated scf accuracy    <       0.01252214 Ry

     iteration #  5     ecut=    65.00 Ry     beta= 0.10
     Davidson diagonalization with overlap
     ethr =  1.04E-04,  avg # of iterations =  1.0

     total cpu time spent up to now is        1.5 secs

     total energy              =    -141.24334893 Ry
     Harris-Foulkes estimate   =    -141.24240130 Ry
     estimated scf accuracy    <       0.00074557 Ry

     iteration #  6     ecut=    65.00 Ry     beta= 0.10
     Davidson diagonalization with overlap
     ethr =  6.21E-06,  avg # of iterations =  2.8

     total cpu time spent up to now is        1.6 secs

     total energy              =    -141.24359800 Ry
     Harris-Foulkes estimate   =    -141.24361575 Ry
     estimated scf accuracy    <       0.00009644 Ry

     iteration #  7     ecut=    65.00 Ry     beta= 0.10
     Davidson diagonalization with overlap
     ethr =  8.04E-07,  avg # of iterations =  1.1

     total cpu time spent up to now is        1.7 secs

     total energy              =    -141.24262681 Ry
     Harris-Foulkes estimate   =    -141.24359918 Ry
     estimated scf accuracy    <       0.00007796 Ry

     iteration #  8     ecut=    65.00 Ry     beta= 0.10
     Davidson diagonalization with overlap
     ethr =  6.50E-07,  avg # of iterations =  2.6

     total cpu time spent up to now is        1.9 secs

     total energy              =    -141.24271457 Ry
     Harris-Foulkes estimate   =    -141.24269041 Ry
     estimated scf accuracy    <       0.00000977 Ry

     iteration #  9     ecut=    65.00 Ry     beta= 0.10
     Davidson diagonalization with overlap
     ethr =  8.14E-08,  avg # of iterations =  1.2

     total cpu time spent up to now is        2.0 secs

     total energy              =    -141.24261420 Ry
     Harris-Foulkes estimate   =    -141.24271503 Ry
     estimated scf accuracy    <       0.00000747 Ry

     iteration # 10     ecut=    65.00 Ry     beta= 0.10
     Davidson diagonalization with overlap
     ethr =  6.23E-08,  avg # of iterations =  3.0

     total cpu time spent up to now is        2.1 secs

     End of self-consistent calculation

          k = 0.1250 0.1250 0.1250 (   585 PWs)   bands (ev):

    30.9166  41.4382  41.4573  41.4760  52.4302  52.4505  52.4706  54.9336
    54.9435  54.9535

          k = 0.1250 0.1250 0.3750 (   579 PWs)   bands (ev):

    34.4091  39.0151  43.9435  43.9623  51.8131  51.8303  54.8793  54.8880
    55.6934  61.5186

          k = 0.1250 0.3750 0.3750 (   589 PWs)   bands (ev):

    37.4241  41.6586  41.6955  44.5505  50.4954  52.9080  52.9571  57.0478
    57.5698  60.7365

          k = 0.3750 0.3750 0.3750 (   591 PWs)   bands (ev):

    39.8895  43.9780  44.0160  44.0537  47.7764  47.8179  47.8594  51.6518
    66.9752  66.9803

          k =-0.1250-0.1250 0.1250 (   585 PWs)   bands (ev):

    30.9166  41.4422  41.4572  41.4720  52.4344  52.4504  52.4664  54.9357
    54.9435  54.9514

          k =-0.1250 0.1250-0.1250 (   585 PWs)   bands (ev):

    30.9166  41.4460  41.4572  41.4682  52.4385  52.4504  52.4622  54.9378
    54.9435  54.9494

          k = 0.1250-0.1250-0.1250 (   585 PWs)   bands (ev):

    30.9166  41.4440  41.4573  41.4702  52.4364  52.4505  52.4644  54.9367
    54.9435  54.9504

          k =-0.1250-0.1250 0.3750 (   579 PWs)   bands (ev):

    34.4091  39.0151  43.9435  43.9623  51.8131  51.8304  54.8793  54.8880
    55.6932  61.5185

          k =-0.1250 0.1250-0.3750 (   579 PWs)   bands (ev):

    34.4091  39.0151  43.9486  43.9572  51.8177  51.8256  54.8817  54.8857
    55.6933  61.5184

          k = 0.1250-0.1250-0.3750 (   579 PWs)   bands (ev):

    34.4091  39.0151  43.9486  43.9572  51.8177  51.8256  54.8817  54.8857
    55.6935  61.5182

          k = 0.3750-0.1250 0.1250 (   579 PWs)   bands (ev):

    34.4091  39.0150  43.9486  43.9573  51.8175  51.8255  54.8818  54.8859
    55.6934  61.5185

          k =-0.3750-0.1250-0.1250 (   579 PWs)   bands (ev):

    34.4091  39.0149  43.9449  43.9609  51.8144  51.8291  54.8796  54.8870
    55.6940  61.5186

          k = 0.3750 0.1250-0.1250 (   579 PWs)   bands (ev):

    34.4091  39.0149  43.9486  43.9573  51.8175  51.8255  54.8818  54.8859
    55.6935  61.5185

          k =-0.3750 0.1250 0.1250 (   579 PWs)   bands (ev):

    34.4091  39.0150  43.9449  43.9609  51.8145  51.8292  54.8797  54.8871
    55.6937  61.5185

          k =-0.1250 0.3750 0.1250 (   579 PWs)   bands (ev):

    34.4091  39.0149  43.9519  43.9543  51.8206  51.8228  54.8830  54.8841
    55.6934  61.5186

          k =-0.1250-0.3750-0.1250 (   579 PWs)   bands (ev):

    34.4091  39.0149  43.9484  43.9578  51.8173  51.8259  54.8815  54.8858
    55.6935  61.5186

          k = 0.1250 0.3750-0.1250 (   579 PWs)   bands (ev):

    34.4091  39.0149  43.9519  43.9543  51.8206  51.8228  54.8828  54.8840
    55.6937  61.5185

          k = 0.1250-0.3750 0.1250 (   579 PWs)   bands (ev):

    34.4091  39.0149  43.9484  43.9578  51.8173  51.8260  54.8815  54.8858
    55.6933  61.5187

          k =-0.1250-0.3750 0.3750 (   589 PWs)   bands (ev):

    37.4240  41.6671  41.6872  44.5504  50.4956  52.9191  52.9459  57.0472
    57.5707  60.7383

          k =-0.1250 0.3750-0.3750 (   589 PWs)   bands (ev):

    37.4240  41.6671  41.6872  44.5504  50.4956  52.9191  52.9458  57.0468
    57.5712  60.7354

          k = 0.1250-0.3750-0.3750 (   589 PWs)   bands (ev):

    37.4240  41.6586  41.6956  44.5505  50.4955  52.9080  52.9571  57.0474
    57.5701  60.7337

          k = 0.3750 0.1250-0.3750 (   589 PWs)   bands (ev):

    37.4240  41.6743  41.6798  44.5504  50.4954  52.9289  52.9363  57.0479
    57.5700  60.7384

          k =-0.3750-0.1250-0.3750 (   589 PWs)   bands (ev):

    37.4240  41.6662  41.6879  44.5503  50.4957  52.9183  52.9471  57.0480
    57.5696  60.7364

          k = 0.3750-0.1250 0.3750 (   589 PWs)   bands (ev):

    37.4240  41.6662  41.6879  44.5503  50.4955  52.9181  52.9470  57.0482
    57.5698  60.7357

          k =-0.3750 0.1250 0.3750 (   589 PWs)   bands (ev):

    37.4240  41.6743  41.6798  44.5504  50.4956  52.9290  52.9364  57.0475
    57.5700  60.7385

          k = 0.3750-0.3750 0.1250 (   589 PWs)   bands (ev):

    37.4241  41.6672  41.6870  44.5504  50.4953  52.9192  52.9457  57.0481
    57.5698  60.7384

          k =-0.3750-0.3750-0.1250 (   589 PWs)   bands (ev):

    37.4241  41.6554  41.6987  44.5503  50.4956  52.9036  52.9614  57.0460
    57.5718  60.7320

          k = 0.3750 0.3750-0.1250 (   589 PWs)   bands (ev):

    37.4241  41.6554  41.6988  44.5504  50.4955  52.9036  52.9613  57.0481
    57.5697  60.7333

          k =-0.3750 0.3750 0.1250 (   589 PWs)   bands (ev):

    37.4241  41.6671  41.6870  44.5504  50.4956  52.9194  52.9458  57.0434
    57.5743  60.7353

          k =-0.3750-0.3750 0.3750 (   591 PWs)   bands (ev):

    39.8894  43.9860  44.0160  44.0457  47.7852  47.8179  47.8507  51.6519
    66.9746  66.9795

          k =-0.3750 0.3750-0.3750 (   591 PWs)   bands (ev):

    39.8894  43.9937  44.0160  44.0380  47.7937  47.8179  47.8422  51.6520
    66.9757  66.9790

          k = 0.3750-0.3750-0.3750 (   591 PWs)   bands (ev):

    39.8894  43.9896  44.0159  44.0421  47.7892  47.8180  47.8468  51.6518
    66.9761  66.9783

     the Fermi energy is    52.6622 ev

!    total energy              =    -141.24262441 Ry
     Harris-Foulkes estimate   =    -141.24262496 Ry
     estimated scf accuracy    <       0.00000098 Ry

     total all-electron energy =     -1925.813752 Ry

     The total energy is the sum of the following terms:

     one-electron contribution =      58.67312057 Ry
     hartree contribution      =       0.21197660 Ry
     xc contribution           =     -17.28551000 Ry
     ewald contribution        =     -40.85514931 Ry
     one-center paw contrib.   =    -141.98643996 Ry
     smearing contrib. (-TS)   =      -0.00062231 Ry

     convergence has been achieved in  10 iterations

     Forces acting on atoms (cartesian axes, Ry/au):

     atom    1 type  1   force =     0.00202526   -0.00041475    0.01639596
     atom    2 type  1   force =    -0.00327905    0.00371959    0.01636862
     atom    3 type  1   force =    -0.00056338   -0.00064809   -0.01728796
     atom    4 type  1   force =     0.00181717   -0.00265675   -0.01547662

     Total force =     0.033393     Total SCF correction =     0.000019


     Computing stress (Cartesian axis) and pressure

          total   stress  (Ry/bohr**3)                   (kbar)     P=59670.47
   0.40563714   0.00000106   0.00000092      59671.27      0.16      0.14
   0.00000106   0.40562584  -0.00000102          0.16  59669.61     -0.15
   0.00000092  -0.00000102   0.40563201          0.14     -0.15  59670.52


     Writing output data file fe_scf_fcc_2.save/
 
     init_run     :      0.12s CPU      0.15s WALL (       1 calls)
     electrons    :      1.06s CPU      1.21s WALL (       1 calls)
     forces       :      0.01s CPU      0.01s WALL (       1 calls)
     stress       :      0.01s CPU      0.01s WALL (       1 calls)

     Called by init_run:
     wfcinit      :      0.05s CPU      0.06s WALL (       1 calls)
     potinit      :      0.02s CPU      0.02s WALL (       1 calls)
     hinit0       :      0.05s CPU      0.07s WALL (       1 calls)

     Called by electrons:
     c_bands      :      0.79s CPU      0.89s WALL (      10 calls)
     sum_band     :      0.11s CPU      0.13s WALL (      10 calls)
     v_of_rho     :      0.00s CPU      0.01s WALL (      11 calls)
     newd         :      0.00s CPU      0.00s WALL (      11 calls)
     PAW_pot      :      0.13s CPU      0.14s WALL (      11 calls)
     mix_rho      :      0.00s CPU      0.00s WALL (      10 calls)

     Called by c_bands:
     init_us_2    :      0.01s CPU      0.01s WALL (     736 calls)
     cegterg      :      0.76s CPU      0.86s WALL (     320 calls)

     Called by sum_band:
     sum_band:bec :      0.00s CPU      0.00s WALL (     320 calls)
     addusdens    :      0.00s CPU      0.00s WALL (      10 calls)

     Called by *egterg:
     h_psi        :      0.55s CPU      0.62s WALL (    1011 calls)
     s_psi        :      0.01s CPU      0.01s WALL (    1011 calls)
     g_psi        :      0.00s CPU      0.00s WALL (     659 calls)
     cdiaghg      :      0.16s CPU      0.18s WALL (     979 calls)

     Called by h_psi:
     h_psi:pot    :      0.55s CPU      0.62s WALL (    1011 calls)
     h_psi:calbec :      0.05s CPU      0.06s WALL (    1011 calls)
     vloc_psi     :      0.48s CPU      0.55s WALL (    1011 calls)
     add_vuspsi   :      0.01s CPU      0.01s WALL (    1011 calls)

     General routines
     calbec       :      0.07s CPU      0.08s WALL (    1491 calls)
     fft          :      0.04s CPU      0.06s WALL (     147 calls)
     ffts         :      0.00s CPU      0.00s WALL (      10 calls)
     fftw         :      0.54s CPU      0.61s WALL (   20586 calls)
 
     Parallel routines
     fft_scatt_xy :      0.03s CPU      0.04s WALL (   20743 calls)
     fft_scatt_yz :      0.45s CPU      0.51s WALL (   20743 calls)
 
     PWSCF        :     1.76s CPU         2.46s WALL

 
   This run was terminated on:  19: 5:22  22Oct2019            

=------------------------------------------------------------------------------=
   JOB DONE.
=------------------------------------------------------------------------------=
