
     Program PWSCF v.6.3 starts on 19Oct2019 at 23:19:49 

     This program is part of the open-source Quantum ESPRESSO suite
     for quantum simulation of materials; please cite
         "P. Giannozzi et al., J. Phys.:Condens. Matter 21 395502 (2009);
         "P. Giannozzi et al., J. Phys.:Condens. Matter 29 465901 (2017);
          URL http://www.quantum-espresso.org", 
     in publications or presentations arising from this work. More details at
     http://www.quantum-espresso.org/quote

     Parallel version (MPI), running on     1 processors

     MPI processes distributed on     1 nodes
     Reading input from /cloud/Code/python/py_pwscf_converge/src/example/wd/runpwscf/file_10026.in
Warning: card &IONS ignored
Warning: card ION_DYNAMICS = 'BFGS', ignored
Warning: card / ignored
Warning: card &CELL ignored
Warning: card CELL_DYNAMICS = 'BFGS', ignored
Warning: card CELL_FACTOR = 2.0, ignored
Warning: card PRESS = 0.0, ignored
Warning: card / ignored

     Current dimensions of program PWSCF are:
     Max number of different atomic species (ntypx) = 10
     Max number of k-points (npk) =  40000
     Max angular momentum in pseudopotentials (lmaxx) =  3
               file Al.pbe-nl-kjpaw_psl.1.0.0.UPF: wavefunction(s)  3S 3P renormalized

     Subspace diagonalization in iterative solution of the eigenvalue problem:
     a serial algorithm will be used


     G-vector sticks info
     --------------------
     sticks:   dense  smooth     PW     G-vecs:    dense   smooth      PW
     Sum         241     241     89                 2721     2721     587



     bravais-lattice index     =            0
     lattice parameter (alat)  =       4.0400  a.u.
     unit-cell volume          =      65.9393 (a.u.)^3
     number of atoms/cell      =            4
     number of atomic types    =            1
     number of electrons       =        12.00
     number of Kohn-Sham states=           10
     kinetic-energy cutoff     =      50.0000  Ry
     charge density cutoff     =     180.0000  Ry
     convergence threshold     =      1.0E-06
     mixing beta               =       0.1000
     number of iterations used =           10  TF        mixing
     Exchange-correlation      = SLA PW PBX PBC ( 1  4  3  4 0 0)

     celldm(1)=   4.040000  celldm(2)=   0.000000  celldm(3)=   0.000000
     celldm(4)=   0.000000  celldm(5)=   0.000000  celldm(6)=   0.000000

     crystal axes: (cart. coord. in units of alat)
               a(1) = (   1.000000   0.000000   0.000000 )  
               a(2) = (   0.000000   1.000000   0.000000 )  
               a(3) = (   0.000000   0.000000   1.000000 )  

     reciprocal axes: (cart. coord. in units 2 pi/alat)
               b(1) = (  1.000000  0.000000  0.000000 )  
               b(2) = (  0.000000  1.000000  0.000000 )  
               b(3) = (  0.000000  0.000000  1.000000 )  


     PseudoPot. # 1 for Al read from file:
     /opt/pp/Al.pbe-nl-kjpaw_psl.1.0.0.UPF
     MD5 check sum: 1b67f78b73fe58c7924490f171ce8a1e
     Pseudo is Projector augmented-wave + core cor, Zval =  3.0
     Generated using "atomic" code by A. Dal Corso v.6.3
     Shape of augmentation charge: PSQ
     Using radial grid of 1135 points,  4 beta functions with: 
                l(1) =   0
                l(2) =   0
                l(3) =   1
                l(4) =   1
     Q(r) pseudized with 0 coefficients 


     atomic species   valence    mass     pseudopotential
        Al             3.00    26.98200     Al( 1.00)

     No symmetry found



   Cartesian axes

     site n.     atom                  positions (alat units)
         1           Al  tau(   1) = (  -0.0001235   0.0000359   0.0002572  )
         2           Al  tau(   2) = (   0.5003009   0.4992819   0.0002658  )
         3           Al  tau(   3) = (   0.4996490   0.0001153   0.5011170  )
         4           Al  tau(   4) = (  -0.0000756   0.5008267   0.5006943  )

     number of k points=    32  Marzari-Vanderbilt smearing, width (Ry)=  0.0200
                       cart. coord. in units 2pi/alat
        k(    1) = (   0.1250000   0.1250000   0.1250000), wk =   0.0625000
        k(    2) = (   0.1250000   0.1250000   0.3750000), wk =   0.0625000
        k(    3) = (   0.1250000   0.3750000   0.3750000), wk =   0.0625000
        k(    4) = (   0.3750000   0.3750000   0.3750000), wk =   0.0625000
        k(    5) = (  -0.1250000  -0.1250000   0.1250000), wk =   0.0625000
        k(    6) = (  -0.1250000   0.1250000  -0.1250000), wk =   0.0625000
        k(    7) = (   0.1250000  -0.1250000  -0.1250000), wk =   0.0625000
        k(    8) = (  -0.1250000  -0.1250000   0.3750000), wk =   0.0625000
        k(    9) = (  -0.1250000   0.1250000  -0.3750000), wk =   0.0625000
        k(   10) = (   0.1250000  -0.1250000  -0.3750000), wk =   0.0625000
        k(   11) = (   0.3750000  -0.1250000   0.1250000), wk =   0.0625000
        k(   12) = (  -0.3750000  -0.1250000  -0.1250000), wk =   0.0625000
        k(   13) = (   0.3750000   0.1250000  -0.1250000), wk =   0.0625000
        k(   14) = (  -0.3750000   0.1250000   0.1250000), wk =   0.0625000
        k(   15) = (  -0.1250000   0.3750000   0.1250000), wk =   0.0625000
        k(   16) = (  -0.1250000  -0.3750000  -0.1250000), wk =   0.0625000
        k(   17) = (   0.1250000   0.3750000  -0.1250000), wk =   0.0625000
        k(   18) = (   0.1250000  -0.3750000   0.1250000), wk =   0.0625000
        k(   19) = (  -0.1250000  -0.3750000   0.3750000), wk =   0.0625000
        k(   20) = (  -0.1250000   0.3750000  -0.3750000), wk =   0.0625000
        k(   21) = (   0.1250000  -0.3750000  -0.3750000), wk =   0.0625000
        k(   22) = (   0.3750000   0.1250000  -0.3750000), wk =   0.0625000
        k(   23) = (  -0.3750000  -0.1250000  -0.3750000), wk =   0.0625000
        k(   24) = (   0.3750000  -0.1250000   0.3750000), wk =   0.0625000
        k(   25) = (  -0.3750000   0.1250000   0.3750000), wk =   0.0625000
        k(   26) = (   0.3750000  -0.3750000   0.1250000), wk =   0.0625000
        k(   27) = (  -0.3750000  -0.3750000  -0.1250000), wk =   0.0625000
        k(   28) = (   0.3750000   0.3750000  -0.1250000), wk =   0.0625000
        k(   29) = (  -0.3750000   0.3750000   0.1250000), wk =   0.0625000
        k(   30) = (  -0.3750000  -0.3750000   0.3750000), wk =   0.0625000
        k(   31) = (  -0.3750000   0.3750000  -0.3750000), wk =   0.0625000
        k(   32) = (   0.3750000  -0.3750000  -0.3750000), wk =   0.0625000

     Dense  grid:     2721 G-vectors     FFT dimensions: (  18,  18,  18)

     Estimated max dynamical RAM per process >       6.30 MB

     Initial potential from superposition of free atoms

     starting charge   11.99084, renormalised to   12.00000
     Starting wfcs are   16 randomized atomic wfcs
     Checking if some PAW data can be deallocated... 

     total cpu time spent up to now is        1.1 secs

     Self-consistent Calculation

     iteration #  1     ecut=    50.00 Ry     beta= 0.10
     Davidson diagonalization with overlap
     ethr =  1.00E-02,  avg # of iterations =  4.9

     total cpu time spent up to now is        1.8 secs

     total energy              =    -141.65157981 Ry
     Harris-Foulkes estimate   =    -141.80579485 Ry
     estimated scf accuracy    <       0.18084522 Ry

     iteration #  2     ecut=    50.00 Ry     beta= 0.10
     Davidson diagonalization with overlap
     ethr =  1.51E-03,  avg # of iterations =  1.0

     total cpu time spent up to now is        2.3 secs

     total energy              =    -141.16259263 Ry
     Harris-Foulkes estimate   =    -141.65424552 Ry
     estimated scf accuracy    <       0.15223725 Ry

     iteration #  3     ecut=    50.00 Ry     beta= 0.10
     Davidson diagonalization with overlap
     ethr =  1.27E-03,  avg # of iterations =  2.0

     total cpu time spent up to now is        2.9 secs

     total energy              =    -141.24497736 Ry
     Harris-Foulkes estimate   =    -141.25949243 Ry
     estimated scf accuracy    <       0.01623850 Ry

     iteration #  4     ecut=    50.00 Ry     beta= 0.10
     Davidson diagonalization with overlap
     ethr =  1.35E-04,  avg # of iterations =  1.0

     total cpu time spent up to now is        3.4 secs

     total energy              =    -141.24055763 Ry
     Harris-Foulkes estimate   =    -141.24544118 Ry
     estimated scf accuracy    <       0.01282443 Ry

     iteration #  5     ecut=    50.00 Ry     beta= 0.10
     Davidson diagonalization with overlap
     ethr =  1.07E-04,  avg # of iterations =  1.0

     total cpu time spent up to now is        3.9 secs

     total energy              =    -141.24283361 Ry
     Harris-Foulkes estimate   =    -141.24169088 Ry
     estimated scf accuracy    <       0.00074678 Ry

     iteration #  6     ecut=    50.00 Ry     beta= 0.10
     Davidson diagonalization with overlap
     ethr =  6.22E-06,  avg # of iterations =  3.0

     total cpu time spent up to now is        4.5 secs

     total energy              =    -141.24301232 Ry
     Harris-Foulkes estimate   =    -141.24311642 Ry
     estimated scf accuracy    <       0.00007744 Ry

     iteration #  7     ecut=    50.00 Ry     beta= 0.10
     Davidson diagonalization with overlap
     ethr =  6.45E-07,  avg # of iterations =  1.2

     total cpu time spent up to now is        5.0 secs

     total energy              =    -141.24192549 Ry
     Harris-Foulkes estimate   =    -141.24301355 Ry
     estimated scf accuracy    <       0.00006776 Ry

     iteration #  8     ecut=    50.00 Ry     beta= 0.10
     Davidson diagonalization with overlap
     ethr =  5.65E-07,  avg # of iterations =  2.9

     total cpu time spent up to now is        5.7 secs

     total energy              =    -141.24201436 Ry
     Harris-Foulkes estimate   =    -141.24199803 Ry
     estimated scf accuracy    <       0.00000601 Ry

     iteration #  9     ecut=    50.00 Ry     beta= 0.10
     Davidson diagonalization with overlap
     ethr =  5.01E-08,  avg # of iterations =  1.2

     total cpu time spent up to now is        6.2 secs

     total energy              =    -141.24193005 Ry
     Harris-Foulkes estimate   =    -141.24201472 Ry
     estimated scf accuracy    <       0.00000997 Ry

     iteration # 10     ecut=    50.00 Ry     beta= 0.10
     Davidson diagonalization with overlap
     ethr =  5.01E-08,  avg # of iterations =  3.0

     total cpu time spent up to now is        6.8 secs

     total energy              =    -141.24193979 Ry
     Harris-Foulkes estimate   =    -141.24194028 Ry
     estimated scf accuracy    <       0.00000305 Ry

     iteration # 11     ecut=    50.00 Ry     beta= 0.10
     Davidson diagonalization with overlap
     ethr =  2.54E-08,  avg # of iterations =  1.0

     total cpu time spent up to now is        7.3 secs

     total energy              =    -141.24194017 Ry
     Harris-Foulkes estimate   =    -141.24193980 Ry
     estimated scf accuracy    <       0.00000266 Ry

     iteration # 12     ecut=    50.00 Ry     beta= 0.10
     Davidson diagonalization with overlap
     ethr =  2.22E-08,  avg # of iterations =  1.0

     total cpu time spent up to now is        7.8 secs

     End of self-consistent calculation

          k = 0.1250 0.1250 0.1250 (   401 PWs)   bands (ev):

    30.9192  41.4406  41.4597  41.4784  52.4320  52.4522  52.4724  54.9356
    54.9455  54.9555

          k = 0.1250 0.1250 0.3750 (   392 PWs)   bands (ev):

    34.4115  39.0174  43.9460  43.9649  51.8152  51.8324  54.8814  54.8901
    55.6953  61.5202

          k = 0.1250 0.3750 0.3750 (   389 PWs)   bands (ev):

    37.4265  41.6610  41.6979  44.5530  50.4975  52.9101  52.9593  57.0500
    57.5718  60.7349

          k = 0.3750 0.3750 0.3750 (   389 PWs)   bands (ev):

    39.8918  43.9804  44.0183  44.0561  47.7787  47.8202  47.8617  51.6540
    66.9759  66.9805

          k =-0.1250-0.1250 0.1250 (   401 PWs)   bands (ev):

    30.9192  41.4446  41.4596  41.4745  52.4362  52.4521  52.4681  54.9377
    54.9455  54.9534

          k =-0.1250 0.1250-0.1250 (   401 PWs)   bands (ev):

    30.9192  41.4485  41.4596  41.4706  52.4403  52.4522  52.4639  54.9397
    54.9455  54.9514

          k = 0.1250-0.1250-0.1250 (   401 PWs)   bands (ev):

    30.9192  41.4464  41.4597  41.4726  52.4381  52.4523  52.4662  54.9386
    54.9455  54.9524

          k =-0.1250-0.1250 0.3750 (   392 PWs)   bands (ev):

    34.4115  39.0175  43.9460  43.9648  51.8152  51.8325  54.8814  54.8901
    55.6950  61.5202

          k =-0.1250 0.1250-0.3750 (   392 PWs)   bands (ev):

    34.4115  39.0175  43.9511  43.9598  51.8198  51.8277  54.8838  54.8878
    55.6951  61.5201

          k = 0.1250-0.1250-0.3750 (   392 PWs)   bands (ev):

    34.4115  39.0174  43.9512  43.9598  51.8198  51.8277  54.8838  54.8877
    55.6953  61.5197

          k = 0.3750-0.1250 0.1250 (   392 PWs)   bands (ev):

    34.4116  39.0173  43.9511  43.9599  51.8196  51.8276  54.8839  54.8879
    55.6953  61.5202

          k =-0.3750-0.1250-0.1250 (   392 PWs)   bands (ev):

    34.4116  39.0173  43.9475  43.9635  51.8165  51.8312  54.8817  54.8891
    55.6959  61.5203

          k = 0.3750 0.1250-0.1250 (   392 PWs)   bands (ev):

    34.4116  39.0173  43.9511  43.9599  51.8196  51.8276  54.8839  54.8879
    55.6953  61.5204

          k =-0.3750 0.1250 0.1250 (   392 PWs)   bands (ev):

    34.4116  39.0173  43.9475  43.9635  51.8166  51.8313  54.8818  54.8892
    55.6955  61.5203

          k =-0.1250 0.3750 0.1250 (   392 PWs)   bands (ev):

    34.4116  39.0173  43.9544  43.9568  51.8227  51.8249  54.8851  54.8862
    55.6952  61.5203

          k =-0.1250-0.3750-0.1250 (   392 PWs)   bands (ev):

    34.4116  39.0172  43.9510  43.9604  51.8194  51.8280  54.8836  54.8879
    55.6953  61.5203

          k = 0.1250 0.3750-0.1250 (   392 PWs)   bands (ev):

    34.4116  39.0172  43.9544  43.9569  51.8227  51.8249  54.8849  54.8861
    55.6956  61.5201

          k = 0.1250-0.3750 0.1250 (   392 PWs)   bands (ev):

    34.4116  39.0173  43.9509  43.9603  51.8195  51.8281  54.8836  54.8879
    55.6952  61.5203

          k =-0.1250-0.3750 0.3750 (   389 PWs)   bands (ev):

    37.4264  41.6694  41.6896  44.5529  50.4977  52.9212  52.9480  57.0493
    57.5727  60.7428

          k =-0.1250 0.3750-0.3750 (   389 PWs)   bands (ev):

    37.4264  41.6695  41.6896  44.5529  50.4976  52.9212  52.9480  57.0489
    57.5732  60.7396

          k = 0.1250-0.3750-0.3750 (   389 PWs)   bands (ev):

    37.4264  41.6610  41.6979  44.5531  50.4975  52.9101  52.9593  57.0496
    57.5720  60.7350

          k = 0.3750 0.1250-0.3750 (   389 PWs)   bands (ev):

    37.4264  41.6766  41.6822  44.5529  50.4975  52.9310  52.9384  57.0500
    57.5720  60.7405

          k =-0.3750-0.1250-0.3750 (   389 PWs)   bands (ev):

    37.4264  41.6686  41.6903  44.5528  50.4977  52.9203  52.9492  57.0502
    57.5716  60.7372

          k = 0.3750-0.1250 0.3750 (   389 PWs)   bands (ev):

    37.4264  41.6686  41.6903  44.5528  50.4975  52.9202  52.9491  57.0503
    57.5717  60.7421

          k =-0.3750 0.1250 0.3750 (   389 PWs)   bands (ev):

    37.4264  41.6767  41.6822  44.5529  50.4976  52.9311  52.9385  57.0496
    57.5720  60.7410

          k = 0.3750-0.3750 0.1250 (   389 PWs)   bands (ev):

    37.4265  41.6695  41.6894  44.5530  50.4973  52.9214  52.9478  57.0502
    57.5718  60.7377

          k =-0.3750-0.3750-0.1250 (   389 PWs)   bands (ev):

    37.4265  41.6578  41.7011  44.5528  50.4977  52.9058  52.9635  57.0482
    57.5737  60.7402

          k = 0.3750 0.3750-0.1250 (   389 PWs)   bands (ev):

    37.4265  41.6578  41.7012  44.5529  50.4975  52.9057  52.9634  57.0503
    57.5717  60.7340

          k =-0.3750 0.3750 0.1250 (   389 PWs)   bands (ev):

    37.4265  41.6695  41.6894  44.5529  50.4976  52.9215  52.9479  57.0456
    57.5762  60.7376

          k =-0.3750-0.3750 0.3750 (   389 PWs)   bands (ev):

    39.8917  43.9883  44.0184  44.0481  47.7874  47.8201  47.8530  51.6542
    66.9765  66.9799

          k =-0.3750 0.3750-0.3750 (   389 PWs)   bands (ev):

    39.8917  43.9961  44.0183  44.0403  47.7959  47.8202  47.8445  51.6542
    66.9787  66.9808

          k = 0.3750-0.3750-0.3750 (   389 PWs)   bands (ev):

    39.8917  43.9919  44.0183  44.0445  47.7915  47.8203  47.8491  51.6541
    66.9781  66.9803

     the Fermi energy is    52.6641 ev

!    total energy              =    -141.24193839 Ry
     Harris-Foulkes estimate   =    -141.24194024 Ry
     estimated scf accuracy    <       0.00000058 Ry

     total all-electron energy =     -1925.813060 Ry

     The total energy is the sum of the following terms:

     one-electron contribution =      58.67424731 Ry
     hartree contribution      =       0.21202977 Ry
     xc contribution           =     -17.28595612 Ry
     ewald contribution        =     -40.85514779 Ry
     one-center paw contrib.   =    -141.98649451 Ry
     smearing contrib. (-TS)   =      -0.00061705 Ry

     convergence has been achieved in  12 iterations

     Forces acting on atoms (cartesian axes, Ry/au):

     atom    1 type  1   force =     0.00200876   -0.00038528    0.01643532
     atom    2 type  1   force =    -0.00324565    0.00373335    0.01640443
     atom    3 type  1   force =    -0.00055624   -0.00069735   -0.01729526
     atom    4 type  1   force =     0.00179313   -0.00265072   -0.01554448

     Total force =     0.033462     Total SCF correction =     0.000005


     Computing stress (Cartesian axis) and pressure

          total   stress  (Ry/bohr**3)                   (kbar)     P=59675.64
   0.40567222   0.00000104   0.00000098      59676.43      0.15      0.14
   0.00000104   0.40566092  -0.00000111          0.15  59674.77     -0.16
   0.00000098  -0.00000111   0.40566729          0.14     -0.16  59675.71


     Writing output data file fe_scf_fcc_2.save/

     init_run     :      0.64s CPU      0.64s WALL (       1 calls)
     electrons    :      6.59s CPU      6.74s WALL (       1 calls)
     forces       :      0.04s CPU      0.04s WALL (       1 calls)
     stress       :      0.11s CPU      0.11s WALL (       1 calls)

     Called by init_run:
     wfcinit      :      0.17s CPU      0.17s WALL (       1 calls)
     potinit      :      0.24s CPU      0.25s WALL (       1 calls)
     hinit0       :      0.22s CPU      0.22s WALL (       1 calls)

     Called by electrons:
     c_bands      :      2.99s CPU      3.04s WALL (      12 calls)
     sum_band     :      0.64s CPU      0.65s WALL (      12 calls)
     v_of_rho     :      0.06s CPU      0.06s WALL (      13 calls)
     newd         :      0.04s CPU      0.06s WALL (      13 calls)
     PAW_pot      :      3.08s CPU      3.17s WALL (      13 calls)
     mix_rho      :      0.01s CPU      0.01s WALL (      12 calls)

     Called by c_bands:
     init_us_2    :      0.12s CPU      0.11s WALL (     864 calls)
     cegterg      :      2.84s CPU      2.88s WALL (     384 calls)

     Called by sum_band:
     sum_band:bec :      0.00s CPU      0.00s WALL (     384 calls)
     addusdens    :      0.02s CPU      0.03s WALL (      12 calls)

     Called by *egterg:
     h_psi        :      2.48s CPU      2.48s WALL (    1157 calls)
     s_psi        :      0.08s CPU      0.09s WALL (    1157 calls)
     g_psi        :      0.03s CPU      0.02s WALL (     741 calls)
     cdiaghg      :      0.17s CPU      0.18s WALL (    1125 calls)

     Called by h_psi:
     h_psi:pot    :      2.48s CPU      2.47s WALL (    1157 calls)
     h_psi:calbec :      0.08s CPU      0.09s WALL (    1157 calls)
     vloc_psi     :      2.28s CPU      2.28s WALL (    1157 calls)
     add_vuspsi   :      0.10s CPU      0.10s WALL (    1157 calls)

     General routines
     calbec       :      0.12s CPU      0.14s WALL (    1701 calls)
     fft          :      0.06s CPU      0.03s WALL (     169 calls)
     ffts         :      0.00s CPU      0.00s WALL (      12 calls)
     fftw         :      2.58s CPU      2.60s WALL (   23914 calls)

     Parallel routines

     PWSCF        :     7.80s CPU         7.98s WALL


   This run was terminated on:  23:19:57  19Oct2019            

=------------------------------------------------------------------------------=
   JOB DONE.
=------------------------------------------------------------------------------=
