
     Program PWSCF v.6.3 starts on 19Oct2019 at 23:20:24 

     This program is part of the open-source Quantum ESPRESSO suite
     for quantum simulation of materials; please cite
         "P. Giannozzi et al., J. Phys.:Condens. Matter 21 395502 (2009);
         "P. Giannozzi et al., J. Phys.:Condens. Matter 29 465901 (2017);
          URL http://www.quantum-espresso.org", 
     in publications or presentations arising from this work. More details at
     http://www.quantum-espresso.org/quote

     Parallel version (MPI), running on     1 processors

     MPI processes distributed on     1 nodes
     Reading input from /cloud/Code/python/py_pwscf_converge/src/example/wd/runpwscf/file_10031.in
Warning: card &IONS ignored
Warning: card ION_DYNAMICS = 'BFGS', ignored
Warning: card / ignored
Warning: card &CELL ignored
Warning: card CELL_DYNAMICS = 'BFGS', ignored
Warning: card CELL_FACTOR = 2.0, ignored
Warning: card PRESS = 0.0, ignored
Warning: card / ignored

     Current dimensions of program PWSCF are:
     Max number of different atomic species (ntypx) = 10
     Max number of k-points (npk) =  40000
     Max angular momentum in pseudopotentials (lmaxx) =  3
               file Al.pbe-nl-kjpaw_psl.1.0.0.UPF: wavefunction(s)  3S 3P renormalized

     Subspace diagonalization in iterative solution of the eigenvalue problem:
     a serial algorithm will be used


     G-vector sticks info
     --------------------
     sticks:   dense  smooth     PW     G-vecs:    dense   smooth      PW
     Sum         261     213     69                 3119     2301     461



     bravais-lattice index     =            0
     lattice parameter (alat)  =       4.0400  a.u.
     unit-cell volume          =      65.9393 (a.u.)^3
     number of atoms/cell      =            4
     number of atomic types    =            1
     number of electrons       =        12.00
     number of Kohn-Sham states=           10
     kinetic-energy cutoff     =      40.0000  Ry
     charge density cutoff     =     200.0000  Ry
     convergence threshold     =      1.0E-06
     mixing beta               =       0.1000
     number of iterations used =           10  TF        mixing
     Exchange-correlation      = SLA PW PBX PBC ( 1  4  3  4 0 0)

     celldm(1)=   4.040000  celldm(2)=   0.000000  celldm(3)=   0.000000
     celldm(4)=   0.000000  celldm(5)=   0.000000  celldm(6)=   0.000000

     crystal axes: (cart. coord. in units of alat)
               a(1) = (   1.000000   0.000000   0.000000 )  
               a(2) = (   0.000000   1.000000   0.000000 )  
               a(3) = (   0.000000   0.000000   1.000000 )  

     reciprocal axes: (cart. coord. in units 2 pi/alat)
               b(1) = (  1.000000  0.000000  0.000000 )  
               b(2) = (  0.000000  1.000000  0.000000 )  
               b(3) = (  0.000000  0.000000  1.000000 )  


     PseudoPot. # 1 for Al read from file:
     /opt/pp/Al.pbe-nl-kjpaw_psl.1.0.0.UPF
     MD5 check sum: 1b67f78b73fe58c7924490f171ce8a1e
     Pseudo is Projector augmented-wave + core cor, Zval =  3.0
     Generated using "atomic" code by A. Dal Corso v.6.3
     Shape of augmentation charge: PSQ
     Using radial grid of 1135 points,  4 beta functions with: 
                l(1) =   0
                l(2) =   0
                l(3) =   1
                l(4) =   1
     Q(r) pseudized with 0 coefficients 


     atomic species   valence    mass     pseudopotential
        Al             3.00    26.98200     Al( 1.00)

     No symmetry found



   Cartesian axes

     site n.     atom                  positions (alat units)
         1           Al  tau(   1) = (  -0.0001235   0.0000359   0.0002572  )
         2           Al  tau(   2) = (   0.5003009   0.4992819   0.0002658  )
         3           Al  tau(   3) = (   0.4996490   0.0001153   0.5011170  )
         4           Al  tau(   4) = (  -0.0000756   0.5008267   0.5006943  )

     number of k points=    32  Marzari-Vanderbilt smearing, width (Ry)=  0.0200
                       cart. coord. in units 2pi/alat
        k(    1) = (   0.1250000   0.1250000   0.1250000), wk =   0.0625000
        k(    2) = (   0.1250000   0.1250000   0.3750000), wk =   0.0625000
        k(    3) = (   0.1250000   0.3750000   0.3750000), wk =   0.0625000
        k(    4) = (   0.3750000   0.3750000   0.3750000), wk =   0.0625000
        k(    5) = (  -0.1250000  -0.1250000   0.1250000), wk =   0.0625000
        k(    6) = (  -0.1250000   0.1250000  -0.1250000), wk =   0.0625000
        k(    7) = (   0.1250000  -0.1250000  -0.1250000), wk =   0.0625000
        k(    8) = (  -0.1250000  -0.1250000   0.3750000), wk =   0.0625000
        k(    9) = (  -0.1250000   0.1250000  -0.3750000), wk =   0.0625000
        k(   10) = (   0.1250000  -0.1250000  -0.3750000), wk =   0.0625000
        k(   11) = (   0.3750000  -0.1250000   0.1250000), wk =   0.0625000
        k(   12) = (  -0.3750000  -0.1250000  -0.1250000), wk =   0.0625000
        k(   13) = (   0.3750000   0.1250000  -0.1250000), wk =   0.0625000
        k(   14) = (  -0.3750000   0.1250000   0.1250000), wk =   0.0625000
        k(   15) = (  -0.1250000   0.3750000   0.1250000), wk =   0.0625000
        k(   16) = (  -0.1250000  -0.3750000  -0.1250000), wk =   0.0625000
        k(   17) = (   0.1250000   0.3750000  -0.1250000), wk =   0.0625000
        k(   18) = (   0.1250000  -0.3750000   0.1250000), wk =   0.0625000
        k(   19) = (  -0.1250000  -0.3750000   0.3750000), wk =   0.0625000
        k(   20) = (  -0.1250000   0.3750000  -0.3750000), wk =   0.0625000
        k(   21) = (   0.1250000  -0.3750000  -0.3750000), wk =   0.0625000
        k(   22) = (   0.3750000   0.1250000  -0.3750000), wk =   0.0625000
        k(   23) = (  -0.3750000  -0.1250000  -0.3750000), wk =   0.0625000
        k(   24) = (   0.3750000  -0.1250000   0.3750000), wk =   0.0625000
        k(   25) = (  -0.3750000   0.1250000   0.3750000), wk =   0.0625000
        k(   26) = (   0.3750000  -0.3750000   0.1250000), wk =   0.0625000
        k(   27) = (  -0.3750000  -0.3750000  -0.1250000), wk =   0.0625000
        k(   28) = (   0.3750000   0.3750000  -0.1250000), wk =   0.0625000
        k(   29) = (  -0.3750000   0.3750000   0.1250000), wk =   0.0625000
        k(   30) = (  -0.3750000  -0.3750000   0.3750000), wk =   0.0625000
        k(   31) = (  -0.3750000   0.3750000  -0.3750000), wk =   0.0625000
        k(   32) = (   0.3750000  -0.3750000  -0.3750000), wk =   0.0625000

     Dense  grid:     3119 G-vectors     FFT dimensions: (  20,  20,  20)

     Smooth grid:     2301 G-vectors     FFT dimensions: (  18,  18,  18)

     Estimated max dynamical RAM per process >       6.35 MB

     Initial potential from superposition of free atoms

     starting charge   11.99084, renormalised to   12.00000
     Starting wfcs are   16 randomized atomic wfcs
     Checking if some PAW data can be deallocated... 

     total cpu time spent up to now is        1.0 secs

     Self-consistent Calculation

     iteration #  1     ecut=    40.00 Ry     beta= 0.10
     Davidson diagonalization with overlap
     ethr =  1.00E-02,  avg # of iterations =  4.8

     total cpu time spent up to now is        1.8 secs

     total energy              =    -141.64972223 Ry
     Harris-Foulkes estimate   =    -141.80422814 Ry
     estimated scf accuracy    <       0.18109500 Ry

     iteration #  2     ecut=    40.00 Ry     beta= 0.10
     Davidson diagonalization with overlap
     ethr =  1.51E-03,  avg # of iterations =  1.0

     total cpu time spent up to now is        2.2 secs

     total energy              =    -141.15941145 Ry
     Harris-Foulkes estimate   =    -141.65323175 Ry
     estimated scf accuracy    <       0.15199044 Ry

     iteration #  3     ecut=    40.00 Ry     beta= 0.10
     Davidson diagonalization with overlap
     ethr =  1.27E-03,  avg # of iterations =  2.0

     total cpu time spent up to now is        2.8 secs

     total energy              =    -141.23672439 Ry
     Harris-Foulkes estimate   =    -141.24767116 Ry
     estimated scf accuracy    <       0.01491209 Ry

     iteration #  4     ecut=    40.00 Ry     beta= 0.10
     Davidson diagonalization with overlap
     ethr =  1.24E-04,  avg # of iterations =  1.0

     total cpu time spent up to now is        3.2 secs

     total energy              =    -141.23962448 Ry
     Harris-Foulkes estimate   =    -141.23729216 Ry
     estimated scf accuracy    <       0.01154227 Ry

     iteration #  5     ecut=    40.00 Ry     beta= 0.10
     Davidson diagonalization with overlap
     ethr =  9.62E-05,  avg # of iterations =  1.5

     total cpu time spent up to now is        3.7 secs

     total energy              =    -141.24160804 Ry
     Harris-Foulkes estimate   =    -141.24077459 Ry
     estimated scf accuracy    <       0.00048613 Ry

     iteration #  6     ecut=    40.00 Ry     beta= 0.10
     Davidson diagonalization with overlap
     ethr =  4.05E-06,  avg # of iterations =  3.0

     total cpu time spent up to now is        4.3 secs

     total energy              =    -141.24178483 Ry
     Harris-Foulkes estimate   =    -141.24178262 Ry
     estimated scf accuracy    <       0.00009787 Ry

     iteration #  7     ecut=    40.00 Ry     beta= 0.10
     Davidson diagonalization with overlap
     ethr =  8.16E-07,  avg # of iterations =  1.1

     total cpu time spent up to now is        4.8 secs

     total energy              =    -141.24104373 Ry
     Harris-Foulkes estimate   =    -141.24178603 Ry
     estimated scf accuracy    <       0.00008788 Ry

     iteration #  8     ecut=    40.00 Ry     beta= 0.10
     Davidson diagonalization with overlap
     ethr =  7.32E-07,  avg # of iterations =  2.0

     total cpu time spent up to now is        5.3 secs

     total energy              =    -141.24093569 Ry
     Harris-Foulkes estimate   =    -141.24107839 Ry
     estimated scf accuracy    <       0.00000739 Ry

     iteration #  9     ecut=    40.00 Ry     beta= 0.10
     Davidson diagonalization with overlap
     ethr =  6.16E-08,  avg # of iterations =  2.8

     total cpu time spent up to now is        5.8 secs

     total energy              =    -141.24088186 Ry
     Harris-Foulkes estimate   =    -141.24094023 Ry
     estimated scf accuracy    <       0.00001082 Ry

     iteration # 10     ecut=    40.00 Ry     beta= 0.10
     Davidson diagonalization with overlap
     ethr =  6.16E-08,  avg # of iterations =  2.4

     total cpu time spent up to now is        6.4 secs

     total energy              =    -141.24088724 Ry
     Harris-Foulkes estimate   =    -141.24088642 Ry
     estimated scf accuracy    <       0.00000412 Ry

     iteration # 11     ecut=    40.00 Ry     beta= 0.10
     Davidson diagonalization with overlap
     ethr =  3.43E-08,  avg # of iterations =  1.5

     total cpu time spent up to now is        6.8 secs

     total energy              =    -141.24088593 Ry
     Harris-Foulkes estimate   =    -141.24088755 Ry
     estimated scf accuracy    <       0.00000197 Ry

     iteration # 12     ecut=    40.00 Ry     beta= 0.10
     Davidson diagonalization with overlap
     ethr =  1.64E-08,  avg # of iterations =  2.0

     total cpu time spent up to now is        7.3 secs

     End of self-consistent calculation

          k = 0.1250 0.1250 0.1250 (   275 PWs)   bands (ev):

    30.9145  41.4401  41.4592  41.4779  52.4350  52.4553  52.4754  54.9325
    54.9424  54.9524

          k = 0.1250 0.1250 0.3750 (   280 PWs)   bands (ev):

    34.4072  39.0140  43.9445  43.9633  51.8143  51.8315  54.8805  54.8892
    55.6993  61.5201

          k = 0.1250 0.3750 0.3750 (   278 PWs)   bands (ev):

    37.4224  41.6577  41.6945  44.5504  50.4967  52.9094  52.9586  57.0500
    57.5712  60.7386

          k = 0.3750 0.3750 0.3750 (   289 PWs)   bands (ev):

    39.8881  43.9775  44.0155  44.0532  47.7773  47.8188  47.8603  51.6526
    66.9848  66.9874

          k =-0.1250-0.1250 0.1250 (   275 PWs)   bands (ev):

    30.9145  41.4441  41.4591  41.4740  52.4393  52.4552  52.4712  54.9346
    54.9424  54.9503

          k =-0.1250 0.1250-0.1250 (   275 PWs)   bands (ev):

    30.9145  41.4479  41.4591  41.4701  52.4433  52.4553  52.4670  54.9366
    54.9424  54.9483

          k = 0.1250-0.1250-0.1250 (   275 PWs)   bands (ev):

    30.9145  41.4459  41.4591  41.4721  52.4412  52.4553  52.4692  54.9355
    54.9424  54.9493

          k =-0.1250-0.1250 0.3750 (   280 PWs)   bands (ev):

    34.4072  39.0141  43.9444  43.9632  51.8143  51.8315  54.8806  54.8892
    55.6990  61.5202

          k =-0.1250 0.1250-0.3750 (   280 PWs)   bands (ev):

    34.4072  39.0141  43.9495  43.9582  51.8189  51.8268  54.8829  54.8869
    55.6991  61.5201

          k = 0.1250-0.1250-0.3750 (   280 PWs)   bands (ev):

    34.4072  39.0140  43.9496  43.9582  51.8189  51.8268  54.8829  54.8868
    55.6993  61.5200

          k = 0.3750-0.1250 0.1250 (   280 PWs)   bands (ev):

    34.4072  39.0139  43.9495  43.9583  51.8187  51.8267  54.8830  54.8871
    55.6993  61.5200

          k =-0.3750-0.1250-0.1250 (   280 PWs)   bands (ev):

    34.4072  39.0139  43.9459  43.9619  51.8156  51.8303  54.8808  54.8882
    55.6999  61.5201

          k = 0.3750 0.1250-0.1250 (   280 PWs)   bands (ev):

    34.4072  39.0139  43.9495  43.9583  51.8187  51.8267  54.8830  54.8871
    55.6993  61.5201

          k =-0.3750 0.1250 0.1250 (   280 PWs)   bands (ev):

    34.4072  39.0140  43.9459  43.9619  51.8157  51.8304  54.8809  54.8883
    55.6995  61.5201

          k =-0.1250 0.3750 0.1250 (   280 PWs)   bands (ev):

    34.4072  39.0139  43.9528  43.9552  51.8218  51.8240  54.8842  54.8853
    55.6992  61.5200

          k =-0.1250-0.3750-0.1250 (   280 PWs)   bands (ev):

    34.4072  39.0138  43.9494  43.9588  51.8185  51.8271  54.8827  54.8870
    55.6993  61.5201

          k = 0.1250 0.3750-0.1250 (   280 PWs)   bands (ev):

    34.4072  39.0139  43.9528  43.9553  51.8217  51.8240  54.8841  54.8853
    55.6995  61.5200

          k = 0.1250-0.3750 0.1250 (   280 PWs)   bands (ev):

    34.4072  39.0139  43.9493  43.9587  51.8185  51.8271  54.8827  54.8870
    55.6992  61.5201

          k =-0.1250-0.3750 0.3750 (   278 PWs)   bands (ev):

    37.4223  41.6661  41.6862  44.5503  50.4969  52.9205  52.9473  57.0494
    57.5721  60.7438

          k =-0.1250 0.3750-0.3750 (   278 PWs)   bands (ev):

    37.4223  41.6661  41.6862  44.5503  50.4969  52.9205  52.9473  57.0490
    57.5726  60.7408

          k = 0.1250-0.3750-0.3750 (   278 PWs)   bands (ev):

    37.4224  41.6577  41.6945  44.5504  50.4968  52.9094  52.9586  57.0496
    57.5714  60.7405

          k = 0.3750 0.1250-0.3750 (   278 PWs)   bands (ev):

    37.4224  41.6733  41.6789  44.5503  50.4967  52.9303  52.9378  57.0501
    57.5714  60.7446

          k =-0.3750-0.1250-0.3750 (   278 PWs)   bands (ev):

    37.4224  41.6653  41.6869  44.5502  50.4970  52.9196  52.9485  57.0503
    57.5710  60.7408

          k = 0.3750-0.1250 0.3750 (   278 PWs)   bands (ev):

    37.4224  41.6653  41.6869  44.5502  50.4968  52.9195  52.9484  57.0504
    57.5711  60.7407

          k =-0.3750 0.1250 0.3750 (   278 PWs)   bands (ev):

    37.4224  41.6733  41.6789  44.5503  50.4969  52.9304  52.9378  57.0497
    57.5714  60.7444

          k = 0.3750-0.3750 0.1250 (   278 PWs)   bands (ev):

    37.4224  41.6661  41.6861  44.5503  50.4966  52.9207  52.9471  57.0503
    57.5712  60.7423

          k =-0.3750-0.3750-0.1250 (   278 PWs)   bands (ev):

    37.4224  41.6544  41.6978  44.5502  50.4969  52.9051  52.9628  57.0482
    57.5731  60.7379

          k = 0.3750 0.3750-0.1250 (   278 PWs)   bands (ev):

    37.4224  41.6544  41.6978  44.5503  50.4968  52.9050  52.9627  57.0503
    57.5711  60.7376

          k =-0.3750 0.3750 0.1250 (   278 PWs)   bands (ev):

    37.4224  41.6661  41.6860  44.5503  50.4969  52.9208  52.9472  57.0457
    57.5756  60.7430

          k =-0.3750-0.3750 0.3750 (   289 PWs)   bands (ev):

    39.8881  43.9854  44.0155  44.0452  47.7861  47.8188  47.8516  51.6527
    66.9826  66.9874

          k =-0.3750 0.3750-0.3750 (   289 PWs)   bands (ev):

    39.8880  43.9932  44.0154  44.0374  47.7945  47.8188  47.8431  51.6527
    66.9830  66.9864

          k = 0.3750-0.3750-0.3750 (   289 PWs)   bands (ev):

    39.8881  43.9890  44.0153  44.0416  47.7901  47.8189  47.8477  51.6526
    66.9828  66.9873

     the Fermi energy is    52.6660 ev

!    total energy              =    -141.24088586 Ry
     Harris-Foulkes estimate   =    -141.24088633 Ry
     estimated scf accuracy    <       0.00000025 Ry

     total all-electron energy =     -1925.812008 Ry

     The total energy is the sum of the following terms:

     one-electron contribution =      58.67553669 Ry
     hartree contribution      =       0.21190367 Ry
     xc contribution           =     -17.28520613 Ry
     ewald contribution        =     -40.85514768 Ry
     one-center paw contrib.   =    -141.98729635 Ry
     smearing contrib. (-TS)   =      -0.00067606 Ry

     convergence has been achieved in  12 iterations

     Forces acting on atoms (cartesian axes, Ry/au):

     atom    1 type  1   force =     0.00199238   -0.00038997    0.01647353
     atom    2 type  1   force =    -0.00319431    0.00365485    0.01644557
     atom    3 type  1   force =    -0.00058053   -0.00071096   -0.01730595
     atom    4 type  1   force =     0.00178246   -0.00255393   -0.01561315

     Total force =     0.033516     Total SCF correction =     0.000016


     Computing stress (Cartesian axis) and pressure

          total   stress  (Ry/bohr**3)                   (kbar)     P=59657.08
   0.40554611   0.00000110   0.00000094      59657.88      0.16      0.14
   0.00000110   0.40553460  -0.00000121          0.16  59656.19     -0.18
   0.00000094  -0.00000121   0.40554116          0.14     -0.18  59657.15


     Writing output data file fe_scf_fcc_2.save/

     init_run     :      0.60s CPU      0.62s WALL (       1 calls)
     electrons    :      6.23s CPU      6.30s WALL (       1 calls)
     forces       :      0.04s CPU      0.04s WALL (       1 calls)
     stress       :      0.10s CPU      0.10s WALL (       1 calls)

     Called by init_run:
     wfcinit      :      0.13s CPU      0.15s WALL (       1 calls)
     potinit      :      0.25s CPU      0.26s WALL (       1 calls)
     hinit0       :      0.20s CPU      0.21s WALL (       1 calls)

     Called by electrons:
     c_bands      :      2.70s CPU      2.74s WALL (      12 calls)
     sum_band     :      0.57s CPU      0.58s WALL (      12 calls)
     v_of_rho     :      0.06s CPU      0.07s WALL (      13 calls)
     newd         :      0.06s CPU      0.06s WALL (      13 calls)
     PAW_pot      :      3.08s CPU      3.09s WALL (      13 calls)
     mix_rho      :      0.02s CPU      0.01s WALL (      12 calls)

     Called by c_bands:
     init_us_2    :      0.09s CPU      0.08s WALL (     864 calls)
     cegterg      :      2.56s CPU      2.62s WALL (     384 calls)

     Called by sum_band:
     sum_band:bec :      0.00s CPU      0.00s WALL (     384 calls)
     addusdens    :      0.02s CPU      0.04s WALL (      12 calls)

     Called by *egterg:
     h_psi        :      2.24s CPU      2.27s WALL (    1219 calls)
     s_psi        :      0.06s CPU      0.07s WALL (    1219 calls)
     g_psi        :      0.02s CPU      0.01s WALL (     803 calls)
     cdiaghg      :      0.18s CPU      0.20s WALL (    1187 calls)

     Called by h_psi:
     h_psi:pot    :      2.24s CPU      2.26s WALL (    1219 calls)
     h_psi:calbec :      0.08s CPU      0.07s WALL (    1219 calls)
     vloc_psi     :      2.04s CPU      2.11s WALL (    1219 calls)
     add_vuspsi   :      0.11s CPU      0.07s WALL (    1219 calls)

     General routines
     calbec       :      0.12s CPU      0.10s WALL (    1763 calls)
     fft          :      0.03s CPU      0.02s WALL (     193 calls)
     ffts         :      0.00s CPU      0.01s WALL (      25 calls)
     fftw         :      2.35s CPU      2.38s WALL (   24220 calls)
     interpolate  :      0.01s CPU      0.01s WALL (      13 calls)

     Parallel routines

     PWSCF        :     7.38s CPU         7.49s WALL


   This run was terminated on:  23:20:31  19Oct2019            

=------------------------------------------------------------------------------=
   JOB DONE.
=------------------------------------------------------------------------------=
