
     Program PWSCF v.6.3 starts on 22Oct2019 at 19: 5:48 

     This program is part of the open-source Quantum ESPRESSO suite
     for quantum simulation of materials; please cite
         "P. Giannozzi et al., J. Phys.:Condens. Matter 21 395502 (2009);
         "P. Giannozzi et al., J. Phys.:Condens. Matter 29 465901 (2017);
          URL http://www.quantum-espresso.org", 
     in publications or presentations arising from this work. More details at
     http://www.quantum-espresso.org/quote

     Parallel version (MPI & OpenMP), running on      20 processor cores
     Number of MPI processes:                20
     Threads/MPI process:                     1

     MPI processes distributed on     1 nodes
     R & G space division:  proc/nbgrp/npool/nimage =      20
     Reading input from /rds/homes/b/bxp912/jobs/20191022_test/wd/runpwscf/file_10121.in
Warning: card &IONS ignored
Warning: card ION_DYNAMICS = 'BFGS', ignored
Warning: card / ignored
Warning: card &CELL ignored
Warning: card CELL_DYNAMICS = 'BFGS', ignored
Warning: card CELL_FACTOR = 2.0, ignored
Warning: card PRESS = 0.0, ignored
Warning: card / ignored

     Current dimensions of program PWSCF are:
     Max number of different atomic species (ntypx) = 10
     Max number of k-points (npk) =  40000
     Max angular momentum in pseudopotentials (lmaxx) =  3
     Message from routine read_upf::
     Pseudo file /rds/homes/b/bxp912/pp/Al.pbe-nl-kjpaw_psl.1.0.0.UPF has been successfully fixed on the fly.
To avoid this message in the future you can permanently fix 
 your pseudo files following instructions given in: 
https://gitlab.com/QEF/q-e/blob/master/upftools/how_to_fix_upf.md
               file Al.pbe-nl-kjpaw_psl.1.0.0.UPF: wavefunction(s)  3S 3P renormalized

     Subspace diagonalization in iterative solution of the eigenvalue problem:
     a serial algorithm will be used

 
     Parallelization info
     --------------------
     sticks:   dense  smooth     PW     G-vecs:    dense   smooth      PW
     Min          11       8      3                  136       88      17
     Max          14       9      4                  137       93      20
     Sum         241     177     61                 2721     1839     365
 


     bravais-lattice index     =            0
     lattice parameter (alat)  =       4.0400  a.u.
     unit-cell volume          =      65.9393 (a.u.)^3
     number of atoms/cell      =            4
     number of atomic types    =            1
     number of electrons       =        12.00
     number of Kohn-Sham states=           10
     kinetic-energy cutoff     =      35.0000  Ry
     charge density cutoff     =     180.0000  Ry
     convergence threshold     =      1.0E-06
     mixing beta               =       0.1000
     number of iterations used =           10  TF        mixing
     Exchange-correlation      = SLA PW PBX PBC ( 1  4  3  4 0 0)

     celldm(1)=   4.040000  celldm(2)=   0.000000  celldm(3)=   0.000000
     celldm(4)=   0.000000  celldm(5)=   0.000000  celldm(6)=   0.000000

     crystal axes: (cart. coord. in units of alat)
               a(1) = (   1.000000   0.000000   0.000000 )  
               a(2) = (   0.000000   1.000000   0.000000 )  
               a(3) = (   0.000000   0.000000   1.000000 )  

     reciprocal axes: (cart. coord. in units 2 pi/alat)
               b(1) = (  1.000000  0.000000  0.000000 )  
               b(2) = (  0.000000  1.000000  0.000000 )  
               b(3) = (  0.000000  0.000000  1.000000 )  


     PseudoPot. # 1 for Al read from file:
     /rds/homes/b/bxp912/pp/Al.pbe-nl-kjpaw_psl.1.0.0.UPF
     MD5 check sum: 339dbea23cf3ab9a065ad45c0f9085d7
     Pseudo is Projector augmented-wave + core cor, Zval =  3.0
     Generated using "atomic" code by A. Dal Corso v.5.1
     Shape of augmentation charge: PSQ
     Using radial grid of 1135 points,  4 beta functions with: 
                l(1) =   0
                l(2) =   0
                l(3) =   1
                l(4) =   1
     Q(r) pseudized with 0 coefficients 


     atomic species   valence    mass     pseudopotential
        Al             3.00    26.98200     Al( 1.00)

     No symmetry found



   Cartesian axes

     site n.     atom                  positions (alat units)
         1           Al  tau(   1) = (  -0.0001235   0.0000359   0.0002572  )
         2           Al  tau(   2) = (   0.5003009   0.4992819   0.0002658  )
         3           Al  tau(   3) = (   0.4996490   0.0001153   0.5011170  )
         4           Al  tau(   4) = (  -0.0000756   0.5008267   0.5006943  )

     number of k points=    32  Marzari-Vanderbilt smearing, width (Ry)=  0.0200
                       cart. coord. in units 2pi/alat
        k(    1) = (   0.1250000   0.1250000   0.1250000), wk =   0.0625000
        k(    2) = (   0.1250000   0.1250000   0.3750000), wk =   0.0625000
        k(    3) = (   0.1250000   0.3750000   0.3750000), wk =   0.0625000
        k(    4) = (   0.3750000   0.3750000   0.3750000), wk =   0.0625000
        k(    5) = (  -0.1250000  -0.1250000   0.1250000), wk =   0.0625000
        k(    6) = (  -0.1250000   0.1250000  -0.1250000), wk =   0.0625000
        k(    7) = (   0.1250000  -0.1250000  -0.1250000), wk =   0.0625000
        k(    8) = (  -0.1250000  -0.1250000   0.3750000), wk =   0.0625000
        k(    9) = (  -0.1250000   0.1250000  -0.3750000), wk =   0.0625000
        k(   10) = (   0.1250000  -0.1250000  -0.3750000), wk =   0.0625000
        k(   11) = (   0.3750000  -0.1250000   0.1250000), wk =   0.0625000
        k(   12) = (  -0.3750000  -0.1250000  -0.1250000), wk =   0.0625000
        k(   13) = (   0.3750000   0.1250000  -0.1250000), wk =   0.0625000
        k(   14) = (  -0.3750000   0.1250000   0.1250000), wk =   0.0625000
        k(   15) = (  -0.1250000   0.3750000   0.1250000), wk =   0.0625000
        k(   16) = (  -0.1250000  -0.3750000  -0.1250000), wk =   0.0625000
        k(   17) = (   0.1250000   0.3750000  -0.1250000), wk =   0.0625000
        k(   18) = (   0.1250000  -0.3750000   0.1250000), wk =   0.0625000
        k(   19) = (  -0.1250000  -0.3750000   0.3750000), wk =   0.0625000
        k(   20) = (  -0.1250000   0.3750000  -0.3750000), wk =   0.0625000
        k(   21) = (   0.1250000  -0.3750000  -0.3750000), wk =   0.0625000
        k(   22) = (   0.3750000   0.1250000  -0.3750000), wk =   0.0625000
        k(   23) = (  -0.3750000  -0.1250000  -0.3750000), wk =   0.0625000
        k(   24) = (   0.3750000  -0.1250000   0.3750000), wk =   0.0625000
        k(   25) = (  -0.3750000   0.1250000   0.3750000), wk =   0.0625000
        k(   26) = (   0.3750000  -0.3750000   0.1250000), wk =   0.0625000
        k(   27) = (  -0.3750000  -0.3750000  -0.1250000), wk =   0.0625000
        k(   28) = (   0.3750000   0.3750000  -0.1250000), wk =   0.0625000
        k(   29) = (  -0.3750000   0.3750000   0.1250000), wk =   0.0625000
        k(   30) = (  -0.3750000  -0.3750000   0.3750000), wk =   0.0625000
        k(   31) = (  -0.3750000   0.3750000  -0.3750000), wk =   0.0625000
        k(   32) = (   0.3750000  -0.3750000  -0.3750000), wk =   0.0625000

     Dense  grid:     2721 G-vectors     FFT dimensions: (  18,  18,  18)

     Smooth grid:     1839 G-vectors     FFT dimensions: (  15,  15,  15)

     Estimated max dynamical RAM per process >       0.46 MB

     Estimated total dynamical RAM >       9.20 MB

     Initial potential from superposition of free atoms

     starting charge   11.99084, renormalised to   12.00000
     Starting wfcs are   16 randomized atomic wfcs
     Checking if some PAW data can be deallocated... 

     total cpu time spent up to now is        0.7 secs

     Self-consistent Calculation

     iteration #  1     ecut=    35.00 Ry     beta= 0.10
     Davidson diagonalization with overlap
     ethr =  1.00E-02,  avg # of iterations =  4.6

     total cpu time spent up to now is        0.8 secs

     total energy              =    -141.64767811 Ry
     Harris-Foulkes estimate   =    -141.80221138 Ry
     estimated scf accuracy    <       0.18106767 Ry

     iteration #  2     ecut=    35.00 Ry     beta= 0.10
     Davidson diagonalization with overlap
     ethr =  1.51E-03,  avg # of iterations =  1.0

     total cpu time spent up to now is        0.9 secs

     total energy              =    -141.15677662 Ry
     Harris-Foulkes estimate   =    -141.65103909 Ry
     estimated scf accuracy    <       0.15189000 Ry

     iteration #  3     ecut=    35.00 Ry     beta= 0.10
     Davidson diagonalization with overlap
     ethr =  1.27E-03,  avg # of iterations =  2.0

     total cpu time spent up to now is        1.0 secs

     total energy              =    -141.23440493 Ry
     Harris-Foulkes estimate   =    -141.24421085 Ry
     estimated scf accuracy    <       0.01484498 Ry

     iteration #  4     ecut=    35.00 Ry     beta= 0.10
     Davidson diagonalization with overlap
     ethr =  1.24E-04,  avg # of iterations =  1.0

     total cpu time spent up to now is        1.1 secs

     total energy              =    -141.23721028 Ry
     Harris-Foulkes estimate   =    -141.23491888 Ry
     estimated scf accuracy    <       0.01155313 Ry

     iteration #  5     ecut=    35.00 Ry     beta= 0.10
     Davidson diagonalization with overlap
     ethr =  9.63E-05,  avg # of iterations =  1.5

     total cpu time spent up to now is        1.2 secs

     total energy              =    -141.23916224 Ry
     Harris-Foulkes estimate   =    -141.23835861 Ry
     estimated scf accuracy    <       0.00053437 Ry

     iteration #  6     ecut=    35.00 Ry     beta= 0.10
     Davidson diagonalization with overlap
     ethr =  4.45E-06,  avg # of iterations =  2.4

     total cpu time spent up to now is        1.3 secs

     total energy              =    -141.23934967 Ry
     Harris-Foulkes estimate   =    -141.23932914 Ry
     estimated scf accuracy    <       0.00010736 Ry

     iteration #  7     ecut=    35.00 Ry     beta= 0.10
     Davidson diagonalization with overlap
     ethr =  8.95E-07,  avg # of iterations =  1.2

     total cpu time spent up to now is        1.4 secs

     total energy              =    -141.23845814 Ry
     Harris-Foulkes estimate   =    -141.23935179 Ry
     estimated scf accuracy    <       0.00008845 Ry

     iteration #  8     ecut=    35.00 Ry     beta= 0.10
     Davidson diagonalization with overlap
     ethr =  7.37E-07,  avg # of iterations =  2.6

     total cpu time spent up to now is        1.5 secs

     total energy              =    -141.23857234 Ry
     Harris-Foulkes estimate   =    -141.23852418 Ry
     estimated scf accuracy    <       0.00000759 Ry

     iteration #  9     ecut=    35.00 Ry     beta= 0.10
     Davidson diagonalization with overlap
     ethr =  6.33E-08,  avg # of iterations =  2.0

     total cpu time spent up to now is        1.6 secs

     total energy              =    -141.23847880 Ry
     Harris-Foulkes estimate   =    -141.23857380 Ry
     estimated scf accuracy    <       0.00000479 Ry

     iteration # 10     ecut=    35.00 Ry     beta= 0.10
     Davidson diagonalization with overlap
     ethr =  3.99E-08,  avg # of iterations =  3.0

     total cpu time spent up to now is        1.8 secs

     End of self-consistent calculation

          k = 0.1250 0.1250 0.1250 (   233 PWs)   bands (ev):

    30.9170  41.4410  41.4600  41.4788  52.4415  52.4617  52.4820  54.9358
    54.9456  54.9557

          k = 0.1250 0.1250 0.3750 (   228 PWs)   bands (ev):

    34.4093  39.0177  43.9483  43.9672  51.8225  51.8398  54.8884  54.8971
    55.7122  61.5405

          k = 0.1250 0.3750 0.3750 (   231 PWs)   bands (ev):

    37.4249  41.6603  41.6973  44.5523  50.4992  52.9178  52.9669  57.0703
    57.5849  60.7522

          k = 0.3750 0.3750 0.3750 (   244 PWs)   bands (ev):

    39.8904  43.9790  44.0169  44.0548  47.7787  47.8201  47.8617  51.6549
    66.9867  66.9912

          k =-0.1250-0.1250 0.1250 (   233 PWs)   bands (ev):

    30.9170  41.4450  41.4600  41.4749  52.4457  52.4617  52.4777  54.9378
    54.9457  54.9536

          k =-0.1250 0.1250-0.1250 (   233 PWs)   bands (ev):

    30.9170  41.4488  41.4601  41.4710  52.4499  52.4617  52.4735  54.9399
    54.9456  54.9516

          k = 0.1250-0.1250-0.1250 (   233 PWs)   bands (ev):

    30.9170  41.4468  41.4600  41.4730  52.4477  52.4618  52.4757  54.9388
    54.9457  54.9526

          k =-0.1250-0.1250 0.3750 (   228 PWs)   bands (ev):

    34.4093  39.0177  43.9483  43.9672  51.8225  51.8398  54.8885  54.8972
    55.7120  61.5407

          k =-0.1250 0.1250-0.3750 (   228 PWs)   bands (ev):

    34.4093  39.0177  43.9534  43.9621  51.8271  51.8351  54.8908  54.8948
    55.7121  61.5404

          k = 0.1250-0.1250-0.3750 (   228 PWs)   bands (ev):

    34.4093  39.0177  43.9535  43.9621  51.8271  51.8351  54.8908  54.8948
    55.7123  61.5404

          k = 0.3750-0.1250 0.1250 (   228 PWs)   bands (ev):

    34.4094  39.0176  43.9534  43.9622  51.8269  51.8350  54.8909  54.8950
    55.7122  61.5404

          k =-0.3750-0.1250-0.1250 (   228 PWs)   bands (ev):

    34.4094  39.0176  43.9498  43.9659  51.8239  51.8385  54.8887  54.8961
    55.7128  61.5405

          k = 0.3750 0.1250-0.1250 (   228 PWs)   bands (ev):

    34.4094  39.0176  43.9534  43.9622  51.8269  51.8349  54.8910  54.8950
    55.7123  61.5412

          k =-0.3750 0.1250 0.1250 (   228 PWs)   bands (ev):

    34.4094  39.0176  43.9497  43.9658  51.8239  51.8386  54.8888  54.8962
    55.7125  61.5405

          k =-0.1250 0.3750 0.1250 (   228 PWs)   bands (ev):

    34.4094  39.0175  43.9567  43.9592  51.8300  51.8323  54.8921  54.8933
    55.7122  61.5406

          k =-0.1250-0.3750-0.1250 (   228 PWs)   bands (ev):

    34.4094  39.0175  43.9533  43.9627  51.8267  51.8354  54.8906  54.8949
    55.7123  61.5407

          k = 0.1250 0.3750-0.1250 (   228 PWs)   bands (ev):

    34.4094  39.0175  43.9568  43.9592  51.8300  51.8322  54.8920  54.8932
    55.7125  61.5406

          k = 0.1250-0.3750 0.1250 (   228 PWs)   bands (ev):

    34.4094  39.0176  43.9532  43.9627  51.8268  51.8354  54.8906  54.8949
    55.7121  61.5406

          k =-0.1250-0.3750 0.3750 (   231 PWs)   bands (ev):

    37.4249  41.6688  41.6890  44.5521  50.4994  52.9288  52.9557  57.0697
    57.5858  60.7510

          k =-0.1250 0.3750-0.3750 (   231 PWs)   bands (ev):

    37.4249  41.6688  41.6890  44.5521  50.4993  52.9288  52.9556  57.0693
    57.5863  60.7520

          k = 0.1250-0.3750-0.3750 (   231 PWs)   bands (ev):

    37.4249  41.6603  41.6973  44.5523  50.4992  52.9178  52.9669  57.0699
    57.5851  60.7483

          k = 0.3750 0.1250-0.3750 (   231 PWs)   bands (ev):

    37.4249  41.6760  41.6816  44.5521  50.4992  52.9387  52.9461  57.0704
    57.5851  60.7535

          k =-0.3750-0.1250-0.3750 (   231 PWs)   bands (ev):

    37.4249  41.6679  41.6897  44.5520  50.4994  52.9280  52.9569  57.0706
    57.5847  60.7532

          k = 0.3750-0.1250 0.3750 (   231 PWs)   bands (ev):

    37.4249  41.6680  41.6897  44.5521  50.4992  52.9279  52.9567  57.0707
    57.5848  60.7519

          k =-0.3750 0.1250 0.3750 (   231 PWs)   bands (ev):

    37.4249  41.6760  41.6816  44.5521  50.4993  52.9388  52.9462  57.0700
    57.5851  60.7532

          k = 0.3750-0.3750 0.1250 (   231 PWs)   bands (ev):

    37.4249  41.6689  41.6887  44.5522  50.4990  52.9290  52.9555  57.0706
    57.5849  60.7525

          k =-0.3750-0.3750-0.1250 (   231 PWs)   bands (ev):

    37.4250  41.6571  41.7005  44.5521  50.4994  52.9134  52.9712  57.0685
    57.5869  60.7486

          k = 0.3750 0.3750-0.1250 (   231 PWs)   bands (ev):

    37.4249  41.6572  41.7005  44.5521  50.4992  52.9133  52.9711  57.0706
    57.5848  60.7496

          k =-0.3750 0.3750 0.1250 (   231 PWs)   bands (ev):

    37.4249  41.6689  41.6887  44.5522  50.4993  52.9291  52.9556  57.0659
    57.5895  60.7522

          k =-0.3750-0.3750 0.3750 (   244 PWs)   bands (ev):

    39.8904  43.9869  44.0170  44.0468  47.7873  47.8201  47.8530  51.6550
    66.9868  66.9914

          k =-0.3750 0.3750-0.3750 (   244 PWs)   bands (ev):

    39.8904  43.9947  44.0169  44.0390  47.7959  47.8201  47.8445  51.6551
    66.9874  66.9906

          k = 0.3750-0.3750-0.3750 (   244 PWs)   bands (ev):

    39.8904  43.9906  44.0169  44.0431  47.7914  47.8202  47.8490  51.6549
    66.9875  66.9895

     the Fermi energy is    52.6731 ev

!    total energy              =    -141.23848716 Ry
     Harris-Foulkes estimate   =    -141.23848735 Ry
     estimated scf accuracy    <       0.00000070 Ry

     total all-electron energy =     -1925.809615 Ry

     The total energy is the sum of the following terms:

     one-electron contribution =      58.67933609 Ry
     hartree contribution      =       0.21172245 Ry
     xc contribution           =     -17.28517730 Ry
     ewald contribution        =     -40.85514779 Ry
     one-center paw contrib.   =    -141.98857334 Ry
     smearing contrib. (-TS)   =      -0.00064727 Ry

     convergence has been achieved in  10 iterations

     Forces acting on atoms (cartesian axes, Ry/au):

     atom    1 type  1   force =     0.00202755   -0.00041080    0.01643407
     atom    2 type  1   force =    -0.00328399    0.00371760    0.01639466
     atom    3 type  1   force =    -0.00056285   -0.00065756   -0.01733073
     atom    4 type  1   force =     0.00181929   -0.00264924   -0.01549800

     Total force =     0.033457     Total SCF correction =     0.000019


     Computing stress (Cartesian axis) and pressure

          total   stress  (Ry/bohr**3)                   (kbar)     P=59625.03
   0.40532821   0.00000112   0.00000075      59625.83      0.17      0.11
   0.00000112   0.40531698  -0.00000115          0.17  59624.18     -0.17
   0.00000075  -0.00000115   0.40532314          0.11     -0.17  59625.08


     Writing output data file fe_scf_fcc_2.save/
 
     init_run     :      0.10s CPU      0.13s WALL (       1 calls)
     electrons    :      0.99s CPU      1.10s WALL (       1 calls)
     forces       :      0.01s CPU      0.01s WALL (       1 calls)
     stress       :      0.01s CPU      0.01s WALL (       1 calls)

     Called by init_run:
     wfcinit      :      0.03s CPU      0.05s WALL (       1 calls)
     potinit      :      0.01s CPU      0.02s WALL (       1 calls)
     hinit0       :      0.05s CPU      0.06s WALL (       1 calls)

     Called by electrons:
     c_bands      :      0.75s CPU      0.83s WALL (      10 calls)
     sum_band     :      0.10s CPU      0.12s WALL (      10 calls)
     v_of_rho     :      0.00s CPU      0.01s WALL (      11 calls)
     newd         :      0.00s CPU      0.00s WALL (      11 calls)
     PAW_pot      :      0.13s CPU      0.14s WALL (      11 calls)
     mix_rho      :      0.00s CPU      0.00s WALL (      10 calls)

     Called by c_bands:
     init_us_2    :      0.01s CPU      0.01s WALL (     736 calls)
     cegterg      :      0.73s CPU      0.81s WALL (     320 calls)

     Called by sum_band:
     sum_band:bec :      0.00s CPU      0.00s WALL (     320 calls)
     addusdens    :      0.00s CPU      0.00s WALL (      10 calls)

     Called by *egterg:
     h_psi        :      0.49s CPU      0.55s WALL (    1031 calls)
     s_psi        :      0.01s CPU      0.01s WALL (    1031 calls)
     g_psi        :      0.00s CPU      0.00s WALL (     679 calls)
     cdiaghg      :      0.17s CPU      0.19s WALL (     999 calls)

     Called by h_psi:
     h_psi:pot    :      0.48s CPU      0.54s WALL (    1031 calls)
     h_psi:calbec :      0.05s CPU      0.06s WALL (    1031 calls)
     vloc_psi     :      0.42s CPU      0.47s WALL (    1031 calls)
     add_vuspsi   :      0.01s CPU      0.01s WALL (    1031 calls)

     General routines
     calbec       :      0.07s CPU      0.08s WALL (    1511 calls)
     fft          :      0.05s CPU      0.05s WALL (     167 calls)
     ffts         :      0.00s CPU      0.00s WALL (      21 calls)
     fftw         :      0.47s CPU      0.53s WALL (   20524 calls)
     interpolate  :      0.00s CPU      0.00s WALL (      11 calls)
 
     Parallel routines
     fft_scatt_xy :      0.03s CPU      0.03s WALL (   20712 calls)
     fft_scatt_yz :      0.40s CPU      0.45s WALL (   20712 calls)
 
     PWSCF        :     1.72s CPU         2.03s WALL

 
   This run was terminated on:  19: 5:50  22Oct2019            

=------------------------------------------------------------------------------=
   JOB DONE.
=------------------------------------------------------------------------------=
