
     Program PWSCF v.6.3 starts on 22Oct2019 at 19:10:37 

     This program is part of the open-source Quantum ESPRESSO suite
     for quantum simulation of materials; please cite
         "P. Giannozzi et al., J. Phys.:Condens. Matter 21 395502 (2009);
         "P. Giannozzi et al., J. Phys.:Condens. Matter 29 465901 (2017);
          URL http://www.quantum-espresso.org", 
     in publications or presentations arising from this work. More details at
     http://www.quantum-espresso.org/quote

     Parallel version (MPI & OpenMP), running on      20 processor cores
     Number of MPI processes:                20
     Threads/MPI process:                     1

     MPI processes distributed on     1 nodes
     R & G space division:  proc/nbgrp/npool/nimage =      20
     Reading input from /rds/homes/b/bxp912/jobs/20191022_test/wd/runpwscf/file_10221.in
Warning: card &IONS ignored
Warning: card ION_DYNAMICS = 'BFGS', ignored
Warning: card / ignored
Warning: card &CELL ignored
Warning: card CELL_DYNAMICS = 'BFGS', ignored
Warning: card CELL_FACTOR = 2.0, ignored
Warning: card PRESS = 0.0, ignored
Warning: card / ignored

     Current dimensions of program PWSCF are:
     Max number of different atomic species (ntypx) = 10
     Max number of k-points (npk) =  40000
     Max angular momentum in pseudopotentials (lmaxx) =  3
     Message from routine read_upf::
     Pseudo file /rds/homes/b/bxp912/pp/Al.pbe-nl-kjpaw_psl.1.0.0.UPF has been successfully fixed on the fly.
To avoid this message in the future you can permanently fix 
 your pseudo files following instructions given in: 
https://gitlab.com/QEF/q-e/blob/master/upftools/how_to_fix_upf.md
               file Al.pbe-nl-kjpaw_psl.1.0.0.UPF: wavefunction(s)  3S 3P renormalized

     Subspace diagonalization in iterative solution of the eigenvalue problem:
     a serial algorithm will be used

 
     Parallelization info
     --------------------
     sticks:   dense  smooth     PW     G-vecs:    dense   smooth      PW
     Min          19      14      4                  285      184      34
     Max          20      15      6                  289      187      37
     Sum         385     293     97                 5743     3695     691
 


     bravais-lattice index     =            0
     lattice parameter (alat)  =       4.0400  a.u.
     unit-cell volume          =      65.9393 (a.u.)^3
     number of atoms/cell      =            4
     number of atomic types    =            1
     number of electrons       =        12.00
     number of Kohn-Sham states=           10
     kinetic-energy cutoff     =      55.0000  Ry
     charge density cutoff     =     300.0000  Ry
     convergence threshold     =      1.0E-06
     mixing beta               =       0.1000
     number of iterations used =           10  TF        mixing
     Exchange-correlation      = SLA PW PBX PBC ( 1  4  3  4 0 0)

     celldm(1)=   4.040000  celldm(2)=   0.000000  celldm(3)=   0.000000
     celldm(4)=   0.000000  celldm(5)=   0.000000  celldm(6)=   0.000000

     crystal axes: (cart. coord. in units of alat)
               a(1) = (   1.000000   0.000000   0.000000 )  
               a(2) = (   0.000000   1.000000   0.000000 )  
               a(3) = (   0.000000   0.000000   1.000000 )  

     reciprocal axes: (cart. coord. in units 2 pi/alat)
               b(1) = (  1.000000  0.000000  0.000000 )  
               b(2) = (  0.000000  1.000000  0.000000 )  
               b(3) = (  0.000000  0.000000  1.000000 )  


     PseudoPot. # 1 for Al read from file:
     /rds/homes/b/bxp912/pp/Al.pbe-nl-kjpaw_psl.1.0.0.UPF
     MD5 check sum: 339dbea23cf3ab9a065ad45c0f9085d7
     Pseudo is Projector augmented-wave + core cor, Zval =  3.0
     Generated using "atomic" code by A. Dal Corso v.5.1
     Shape of augmentation charge: PSQ
     Using radial grid of 1135 points,  4 beta functions with: 
                l(1) =   0
                l(2) =   0
                l(3) =   1
                l(4) =   1
     Q(r) pseudized with 0 coefficients 


     atomic species   valence    mass     pseudopotential
        Al             3.00    26.98200     Al( 1.00)

     No symmetry found



   Cartesian axes

     site n.     atom                  positions (alat units)
         1           Al  tau(   1) = (  -0.0001235   0.0000359   0.0002572  )
         2           Al  tau(   2) = (   0.5003009   0.4992819   0.0002658  )
         3           Al  tau(   3) = (   0.4996490   0.0001153   0.5011170  )
         4           Al  tau(   4) = (  -0.0000756   0.5008267   0.5006943  )

     number of k points=    32  Marzari-Vanderbilt smearing, width (Ry)=  0.0200
                       cart. coord. in units 2pi/alat
        k(    1) = (   0.1250000   0.1250000   0.1250000), wk =   0.0625000
        k(    2) = (   0.1250000   0.1250000   0.3750000), wk =   0.0625000
        k(    3) = (   0.1250000   0.3750000   0.3750000), wk =   0.0625000
        k(    4) = (   0.3750000   0.3750000   0.3750000), wk =   0.0625000
        k(    5) = (  -0.1250000  -0.1250000   0.1250000), wk =   0.0625000
        k(    6) = (  -0.1250000   0.1250000  -0.1250000), wk =   0.0625000
        k(    7) = (   0.1250000  -0.1250000  -0.1250000), wk =   0.0625000
        k(    8) = (  -0.1250000  -0.1250000   0.3750000), wk =   0.0625000
        k(    9) = (  -0.1250000   0.1250000  -0.3750000), wk =   0.0625000
        k(   10) = (   0.1250000  -0.1250000  -0.3750000), wk =   0.0625000
        k(   11) = (   0.3750000  -0.1250000   0.1250000), wk =   0.0625000
        k(   12) = (  -0.3750000  -0.1250000  -0.1250000), wk =   0.0625000
        k(   13) = (   0.3750000   0.1250000  -0.1250000), wk =   0.0625000
        k(   14) = (  -0.3750000   0.1250000   0.1250000), wk =   0.0625000
        k(   15) = (  -0.1250000   0.3750000   0.1250000), wk =   0.0625000
        k(   16) = (  -0.1250000  -0.3750000  -0.1250000), wk =   0.0625000
        k(   17) = (   0.1250000   0.3750000  -0.1250000), wk =   0.0625000
        k(   18) = (   0.1250000  -0.3750000   0.1250000), wk =   0.0625000
        k(   19) = (  -0.1250000  -0.3750000   0.3750000), wk =   0.0625000
        k(   20) = (  -0.1250000   0.3750000  -0.3750000), wk =   0.0625000
        k(   21) = (   0.1250000  -0.3750000  -0.3750000), wk =   0.0625000
        k(   22) = (   0.3750000   0.1250000  -0.3750000), wk =   0.0625000
        k(   23) = (  -0.3750000  -0.1250000  -0.3750000), wk =   0.0625000
        k(   24) = (   0.3750000  -0.1250000   0.3750000), wk =   0.0625000
        k(   25) = (  -0.3750000   0.1250000   0.3750000), wk =   0.0625000
        k(   26) = (   0.3750000  -0.3750000   0.1250000), wk =   0.0625000
        k(   27) = (  -0.3750000  -0.3750000  -0.1250000), wk =   0.0625000
        k(   28) = (   0.3750000   0.3750000  -0.1250000), wk =   0.0625000
        k(   29) = (  -0.3750000   0.3750000   0.1250000), wk =   0.0625000
        k(   30) = (  -0.3750000  -0.3750000   0.3750000), wk =   0.0625000
        k(   31) = (  -0.3750000   0.3750000  -0.3750000), wk =   0.0625000
        k(   32) = (   0.3750000  -0.3750000  -0.3750000), wk =   0.0625000

     Dense  grid:     5743 G-vectors     FFT dimensions: (  24,  24,  24)

     Smooth grid:     3695 G-vectors     FFT dimensions: (  20,  20,  20)

     Estimated max dynamical RAM per process >       0.83 MB

     Estimated total dynamical RAM >      16.65 MB

     Initial potential from superposition of free atoms

     starting charge   11.99084, renormalised to   12.00000
     Starting wfcs are   16 randomized atomic wfcs
     Checking if some PAW data can be deallocated... 

     total cpu time spent up to now is        0.8 secs

     Self-consistent Calculation

     iteration #  1     ecut=    55.00 Ry     beta= 0.10
     Davidson diagonalization with overlap
     ethr =  1.00E-02,  avg # of iterations =  4.9

     total cpu time spent up to now is        1.0 secs

     total energy              =    -141.65170424 Ry
     Harris-Foulkes estimate   =    -141.80592165 Ry
     estimated scf accuracy    <       0.18085767 Ry

     iteration #  2     ecut=    55.00 Ry     beta= 0.10
     Davidson diagonalization with overlap
     ethr =  1.51E-03,  avg # of iterations =  1.0

     total cpu time spent up to now is        1.1 secs

     total energy              =    -141.16260934 Ry
     Harris-Foulkes estimate   =    -141.65441070 Ry
     estimated scf accuracy    <       0.15218917 Ry

     iteration #  3     ecut=    55.00 Ry     beta= 0.10
     Davidson diagonalization with overlap
     ethr =  1.27E-03,  avg # of iterations =  2.0

     total cpu time spent up to now is        1.2 secs

     total energy              =    -141.24460307 Ry
     Harris-Foulkes estimate   =    -141.25885031 Ry
     estimated scf accuracy    <       0.01611877 Ry

     iteration #  4     ecut=    55.00 Ry     beta= 0.10
     Davidson diagonalization with overlap
     ethr =  1.34E-04,  avg # of iterations =  1.0

     total cpu time spent up to now is        1.3 secs

     total energy              =    -141.24069205 Ry
     Harris-Foulkes estimate   =    -141.24506687 Ry
     estimated scf accuracy    <       0.01273087 Ry

     iteration #  5     ecut=    55.00 Ry     beta= 0.10
     Davidson diagonalization with overlap
     ethr =  1.06E-04,  avg # of iterations =  1.0

     total cpu time spent up to now is        1.4 secs

     total energy              =    -141.24292389 Ry
     Harris-Foulkes estimate   =    -141.24181019 Ry
     estimated scf accuracy    <       0.00073188 Ry

     iteration #  6     ecut=    55.00 Ry     beta= 0.10
     Davidson diagonalization with overlap
     ethr =  6.10E-06,  avg # of iterations =  2.8

     total cpu time spent up to now is        1.5 secs

     total energy              =    -141.24311733 Ry
     Harris-Foulkes estimate   =    -141.24320014 Ry
     estimated scf accuracy    <       0.00007832 Ry

     iteration #  7     ecut=    55.00 Ry     beta= 0.10
     Davidson diagonalization with overlap
     ethr =  6.53E-07,  avg # of iterations =  1.2

     total cpu time spent up to now is        1.6 secs

     total energy              =    -141.24204616 Ry
     Harris-Foulkes estimate   =    -141.24311840 Ry
     estimated scf accuracy    <       0.00006784 Ry

     iteration #  8     ecut=    55.00 Ry     beta= 0.10
     Davidson diagonalization with overlap
     ethr =  5.65E-07,  avg # of iterations =  2.9

     total cpu time spent up to now is        1.8 secs

     total energy              =    -141.24212479 Ry
     Harris-Foulkes estimate   =    -141.24211564 Ry
     estimated scf accuracy    <       0.00000641 Ry

     iteration #  9     ecut=    55.00 Ry     beta= 0.10
     Davidson diagonalization with overlap
     ethr =  5.34E-08,  avg # of iterations =  1.0

     total cpu time spent up to now is        1.9 secs

     total energy              =    -141.24204290 Ry
     Harris-Foulkes estimate   =    -141.24212503 Ry
     estimated scf accuracy    <       0.00000947 Ry

     iteration # 10     ecut=    55.00 Ry     beta= 0.10
     Davidson diagonalization with overlap
     ethr =  5.34E-08,  avg # of iterations =  3.0

     total cpu time spent up to now is        2.0 secs

     total energy              =    -141.24205233 Ry
     Harris-Foulkes estimate   =    -141.24205271 Ry
     estimated scf accuracy    <       0.00000278 Ry

     iteration # 11     ecut=    55.00 Ry     beta= 0.10
     Davidson diagonalization with overlap
     ethr =  2.31E-08,  avg # of iterations =  1.0

     total cpu time spent up to now is        2.1 secs

     total energy              =    -141.24205175 Ry
     Harris-Foulkes estimate   =    -141.24205234 Ry
     estimated scf accuracy    <       0.00000233 Ry

     iteration # 12     ecut=    55.00 Ry     beta= 0.10
     Davidson diagonalization with overlap
     ethr =  1.94E-08,  avg # of iterations =  1.0

     total cpu time spent up to now is        2.2 secs

     End of self-consistent calculation

          k = 0.1250 0.1250 0.1250 (   452 PWs)   bands (ev):

    30.9175  41.4396  41.4587  41.4775  52.4308  52.4510  52.4712  54.9344
    54.9443  54.9543

          k = 0.1250 0.1250 0.3750 (   457 PWs)   bands (ev):

    34.4100  39.0161  43.9452  43.9640  51.8142  51.8315  54.8803  54.8890
    55.6941  61.5189

          k = 0.1250 0.3750 0.3750 (   451 PWs)   bands (ev):

    37.4251  41.6598  41.6967  44.5520  50.4966  52.9091  52.9583  57.0490
    57.5707  60.7353

          k = 0.3750 0.3750 0.3750 (   459 PWs)   bands (ev):

    39.8905  43.9792  44.0171  44.0549  47.7776  47.8191  47.8606  51.6531
    66.9750  66.9788

          k =-0.1250-0.1250 0.1250 (   452 PWs)   bands (ev):

    30.9175  41.4436  41.4587  41.4735  52.4350  52.4510  52.4669  54.9365
    54.9443  54.9522

          k =-0.1250 0.1250-0.1250 (   452 PWs)   bands (ev):

    30.9175  41.4475  41.4587  41.4696  52.4391  52.4510  52.4628  54.9385
    54.9443  54.9502

          k = 0.1250-0.1250-0.1250 (   452 PWs)   bands (ev):

    30.9175  41.4454  41.4587  41.4717  52.4370  52.4511  52.4650  54.9374
    54.9443  54.9512

          k =-0.1250-0.1250 0.3750 (   457 PWs)   bands (ev):

    34.4100  39.0162  43.9451  43.9640  51.8143  51.8315  54.8804  54.8890
    55.6938  61.5191

          k =-0.1250 0.1250-0.3750 (   457 PWs)   bands (ev):

    34.4100  39.0161  43.9502  43.9589  51.8189  51.8268  54.8827  54.8867
    55.6939  61.5191

          k = 0.1250-0.1250-0.3750 (   457 PWs)   bands (ev):

    34.4100  39.0161  43.9503  43.9589  51.8189  51.8268  54.8827  54.8867
    55.6941  61.5189

          k = 0.3750-0.1250 0.1250 (   457 PWs)   bands (ev):

    34.4100  39.0160  43.9502  43.9590  51.8187  51.8267  54.8828  54.8869
    55.6941  61.5192

          k =-0.3750-0.1250-0.1250 (   457 PWs)   bands (ev):

    34.4100  39.0160  43.9466  43.9626  51.8156  51.8303  54.8806  54.8880
    55.6947  61.5192

          k = 0.3750 0.1250-0.1250 (   457 PWs)   bands (ev):

    34.4100  39.0160  43.9502  43.9590  51.8187  51.8267  54.8828  54.8869
    55.6941  61.5191

          k =-0.3750 0.1250 0.1250 (   457 PWs)   bands (ev):

    34.4100  39.0160  43.9466  43.9626  51.8157  51.8304  54.8807  54.8881
    55.6943  61.5191

          k =-0.1250 0.3750 0.1250 (   457 PWs)   bands (ev):

    34.4100  39.0159  43.9535  43.9560  51.8218  51.8240  54.8840  54.8851
    55.6940  61.5191

          k =-0.1250-0.3750-0.1250 (   457 PWs)   bands (ev):

    34.4100  39.0159  43.9501  43.9595  51.8185  51.8271  54.8825  54.8868
    55.6941  61.5192

          k = 0.1250 0.3750-0.1250 (   457 PWs)   bands (ev):

    34.4100  39.0159  43.9535  43.9560  51.8218  51.8240  54.8839  54.8851
    55.6944  61.5191

          k = 0.1250-0.3750 0.1250 (   457 PWs)   bands (ev):

    34.4100  39.0160  43.9500  43.9594  51.8185  51.8272  54.8825  54.8868
    55.6940  61.5191

          k =-0.1250-0.3750 0.3750 (   451 PWs)   bands (ev):

    37.4251  41.6683  41.6884  44.5518  50.4968  52.9202  52.9470  57.0484
    57.5716  60.7405

          k =-0.1250 0.3750-0.3750 (   451 PWs)   bands (ev):

    37.4251  41.6683  41.6884  44.5518  50.4967  52.9202  52.9470  57.0480
    57.5721  60.7405

          k = 0.1250-0.3750-0.3750 (   451 PWs)   bands (ev):

    37.4251  41.6598  41.6967  44.5520  50.4966  52.9091  52.9583  57.0486
    57.5710  60.7363

          k = 0.3750 0.1250-0.3750 (   451 PWs)   bands (ev):

    37.4251  41.6755  41.6811  44.5519  50.4966  52.9300  52.9375  57.0491
    57.5709  60.7397

          k =-0.3750-0.1250-0.3750 (   451 PWs)   bands (ev):

    37.4251  41.6675  41.6891  44.5517  50.4968  52.9193  52.9482  57.0493
    57.5705  60.7404

          k = 0.3750-0.1250 0.3750 (   451 PWs)   bands (ev):

    37.4251  41.6675  41.6891  44.5518  50.4967  52.9192  52.9481  57.0494
    57.5707  60.7406

          k =-0.3750 0.1250 0.3750 (   451 PWs)   bands (ev):

    37.4251  41.6755  41.6811  44.5519  50.4967  52.9301  52.9375  57.0487
    57.5709  60.7393

          k = 0.3750-0.3750 0.1250 (   451 PWs)   bands (ev):

    37.4251  41.6683  41.6882  44.5519  50.4964  52.9204  52.9468  57.0493
    57.5707  60.7370

          k =-0.3750-0.3750-0.1250 (   451 PWs)   bands (ev):

    37.4252  41.6566  41.7000  44.5518  50.4968  52.9047  52.9625  57.0472
    57.5727  60.7356

          k = 0.3750 0.3750-0.1250 (   451 PWs)   bands (ev):

    37.4252  41.6566  41.7000  44.5518  50.4966  52.9047  52.9624  57.0493
    57.5706  60.7329

          k =-0.3750 0.3750 0.1250 (   451 PWs)   bands (ev):

    37.4251  41.6683  41.6882  44.5519  50.4967  52.9205  52.9469  57.0447
    57.5752  60.7374

          k =-0.3750-0.3750 0.3750 (   459 PWs)   bands (ev):

    39.8904  43.9871  44.0172  44.0469  47.7863  47.8190  47.8519  51.6532
    66.9766  66.9802

          k =-0.3750 0.3750-0.3750 (   459 PWs)   bands (ev):

    39.8904  43.9949  44.0171  44.0391  47.7948  47.8191  47.8434  51.6533
    66.9763  66.9786

          k = 0.3750-0.3750-0.3750 (   459 PWs)   bands (ev):

    39.8904  43.9907  44.0170  44.0433  47.7904  47.8191  47.8480  51.6531
    66.9761  66.9795

     the Fermi energy is    52.6630 ev

!    total energy              =    -141.24205125 Ry
     Harris-Foulkes estimate   =    -141.24205179 Ry
     estimated scf accuracy    <       0.00000035 Ry

     total all-electron energy =     -1925.813179 Ry

     The total energy is the sum of the following terms:

     one-electron contribution =      58.67371615 Ry
     hartree contribution      =       0.21199645 Ry
     xc contribution           =     -17.28559056 Ry
     ewald contribution        =     -40.85514762 Ry
     one-center paw contrib.   =    -141.98641171 Ry
     smearing contrib. (-TS)   =      -0.00061395 Ry

     convergence has been achieved in  12 iterations

     Forces acting on atoms (cartesian axes, Ry/au):

     atom    1 type  1   force =     0.00200532   -0.00038253    0.01644348
     atom    2 type  1   force =    -0.00323513    0.00372529    0.01641574
     atom    3 type  1   force =    -0.00055994   -0.00070621   -0.01729345
     atom    4 type  1   force =     0.00178976   -0.00263654   -0.01556577

     Total force =     0.033477     Total SCF correction =     0.000008


     Computing stress (Cartesian axis) and pressure

          total   stress  (Ry/bohr**3)                   (kbar)     P=59671.89
   0.40564672   0.00000118   0.00000087      59672.68      0.17      0.13
   0.00000118   0.40563558  -0.00000112          0.17  59671.04     -0.16
   0.00000087  -0.00000112   0.40564168          0.13     -0.16  59671.94


     Writing output data file fe_scf_fcc_2.save/
 
     init_run     :      0.10s CPU      0.14s WALL (       1 calls)
     electrons    :      1.25s CPU      1.39s WALL (       1 calls)
     forces       :      0.01s CPU      0.01s WALL (       1 calls)
     stress       :      0.01s CPU      0.01s WALL (       1 calls)

     Called by init_run:
     wfcinit      :      0.04s CPU      0.05s WALL (       1 calls)
     potinit      :      0.01s CPU      0.02s WALL (       1 calls)
     hinit0       :      0.03s CPU      0.06s WALL (       1 calls)

     Called by electrons:
     c_bands      :      0.93s CPU      1.03s WALL (      12 calls)
     sum_band     :      0.16s CPU      0.17s WALL (      12 calls)
     v_of_rho     :      0.01s CPU      0.01s WALL (      13 calls)
     newd         :      0.00s CPU      0.00s WALL (      13 calls)
     PAW_pot      :      0.15s CPU      0.16s WALL (      13 calls)
     mix_rho      :      0.01s CPU      0.01s WALL (      12 calls)

     Called by c_bands:
     init_us_2    :      0.01s CPU      0.01s WALL (     864 calls)
     cegterg      :      0.90s CPU      1.00s WALL (     384 calls)

     Called by sum_band:
     sum_band:bec :      0.00s CPU      0.00s WALL (     384 calls)
     addusdens    :      0.00s CPU      0.00s WALL (      12 calls)

     Called by *egterg:
     h_psi        :      0.64s CPU      0.72s WALL (    1144 calls)
     s_psi        :      0.01s CPU      0.01s WALL (    1144 calls)
     g_psi        :      0.00s CPU      0.00s WALL (     728 calls)
     cdiaghg      :      0.18s CPU      0.20s WALL (    1112 calls)

     Called by h_psi:
     h_psi:pot    :      0.64s CPU      0.71s WALL (    1144 calls)
     h_psi:calbec :      0.06s CPU      0.07s WALL (    1144 calls)
     vloc_psi     :      0.57s CPU      0.63s WALL (    1144 calls)
     add_vuspsi   :      0.01s CPU      0.01s WALL (    1144 calls)

     General routines
     calbec       :      0.09s CPU      0.10s WALL (    1688 calls)
     fft          :      0.03s CPU      0.06s WALL (     193 calls)
     ffts         :      0.00s CPU      0.00s WALL (      25 calls)
     fftw         :      0.65s CPU      0.71s WALL (   23880 calls)
     interpolate  :      0.00s CPU      0.00s WALL (      13 calls)
 
     Parallel routines
     fft_scatt_xy :      0.04s CPU      0.04s WALL (   24098 calls)
     fft_scatt_yz :      0.52s CPU      0.58s WALL (   24098 calls)
 
     PWSCF        :     1.94s CPU         2.43s WALL

 
   This run was terminated on:  19:10:39  22Oct2019            

=------------------------------------------------------------------------------=
   JOB DONE.
=------------------------------------------------------------------------------=
