
     Program PWSCF v.6.3 starts on 22Oct2019 at  0:45:48 

     This program is part of the open-source Quantum ESPRESSO suite
     for quantum simulation of materials; please cite
         "P. Giannozzi et al., J. Phys.:Condens. Matter 21 395502 (2009);
         "P. Giannozzi et al., J. Phys.:Condens. Matter 29 465901 (2017);
          URL http://www.quantum-espresso.org", 
     in publications or presentations arising from this work. More details at
     http://www.quantum-espresso.org/quote

     Parallel version (MPI), running on     1 processors

     MPI processes distributed on     1 nodes
     Reading input from /cloud/Code/python/py_pwscf_converge/src/example/wd/runpwscf/file_10236.in
Warning: card &IONS ignored
Warning: card ION_DYNAMICS = 'BFGS', ignored
Warning: card / ignored
Warning: card &CELL ignored
Warning: card CELL_DYNAMICS = 'BFGS', ignored
Warning: card CELL_FACTOR = 2.0, ignored
Warning: card PRESS = 0.0, ignored
Warning: card / ignored

     Current dimensions of program PWSCF are:
     Max number of different atomic species (ntypx) = 10
     Max number of k-points (npk) =  40000
     Max angular momentum in pseudopotentials (lmaxx) =  3
               file Al.pbe-nl-kjpaw_psl.1.0.0.UPF: wavefunction(s)  3S 3P renormalized

     Subspace diagonalization in iterative solution of the eigenvalue problem:
     a serial algorithm will be used


     G-vector sticks info
     --------------------
     sticks:   dense  smooth     PW     G-vecs:    dense   smooth      PW
     Sum         261     261    121                 3119     3119     949



     bravais-lattice index     =            0
     lattice parameter (alat)  =       4.0400  a.u.
     unit-cell volume          =      65.9393 (a.u.)^3
     number of atoms/cell      =            4
     number of atomic types    =            1
     number of electrons       =        12.00
     number of Kohn-Sham states=           10
     kinetic-energy cutoff     =      66.0000  Ry
     charge density cutoff     =     200.0000  Ry
     convergence threshold     =      1.0E-06
     mixing beta               =       0.1000
     number of iterations used =           10  TF        mixing
     Exchange-correlation      = SLA PW PBX PBC ( 1  4  3  4 0 0)

     celldm(1)=   4.040000  celldm(2)=   0.000000  celldm(3)=   0.000000
     celldm(4)=   0.000000  celldm(5)=   0.000000  celldm(6)=   0.000000

     crystal axes: (cart. coord. in units of alat)
               a(1) = (   1.000000   0.000000   0.000000 )  
               a(2) = (   0.000000   1.000000   0.000000 )  
               a(3) = (   0.000000   0.000000   1.000000 )  

     reciprocal axes: (cart. coord. in units 2 pi/alat)
               b(1) = (  1.000000  0.000000  0.000000 )  
               b(2) = (  0.000000  1.000000  0.000000 )  
               b(3) = (  0.000000  0.000000  1.000000 )  


     PseudoPot. # 1 for Al read from file:
     /opt/pp/Al.pbe-nl-kjpaw_psl.1.0.0.UPF
     MD5 check sum: 1b67f78b73fe58c7924490f171ce8a1e
     Pseudo is Projector augmented-wave + core cor, Zval =  3.0
     Generated using "atomic" code by A. Dal Corso v.6.3
     Shape of augmentation charge: PSQ
     Using radial grid of 1135 points,  4 beta functions with: 
                l(1) =   0
                l(2) =   0
                l(3) =   1
                l(4) =   1
     Q(r) pseudized with 0 coefficients 


     atomic species   valence    mass     pseudopotential
        Al             3.00    26.98200     Al( 1.00)

     No symmetry found



   Cartesian axes

     site n.     atom                  positions (alat units)
         1           Al  tau(   1) = (  -0.0001235   0.0000359   0.0002572  )
         2           Al  tau(   2) = (   0.5003009   0.4992819   0.0002658  )
         3           Al  tau(   3) = (   0.4996490   0.0001153   0.5011170  )
         4           Al  tau(   4) = (  -0.0000756   0.5008267   0.5006943  )

     number of k points=    14  Marzari-Vanderbilt smearing, width (Ry)=  0.5000
                       cart. coord. in units 2pi/alat
        k(    1) = (   0.1666667   0.1666667   0.1666667), wk =   0.1481481
        k(    2) = (   0.1666667   0.1666667  -0.5000000), wk =   0.1481481
        k(    3) = (   0.1666667  -0.5000000  -0.5000000), wk =   0.1481481
        k(    4) = (  -0.5000000  -0.5000000  -0.5000000), wk =   0.0740741
        k(    5) = (  -0.1666667  -0.1666667   0.1666667), wk =   0.1481481
        k(    6) = (  -0.1666667   0.1666667  -0.1666667), wk =   0.1481481
        k(    7) = (   0.1666667  -0.1666667  -0.1666667), wk =   0.1481481
        k(    8) = (  -0.1666667   0.1666667   0.5000000), wk =   0.1481481
        k(    9) = (  -0.5000000  -0.1666667   0.1666667), wk =   0.1481481
        k(   10) = (   0.5000000  -0.1666667  -0.1666667), wk =   0.1481481
        k(   11) = (  -0.1666667  -0.5000000   0.1666667), wk =   0.1481481
        k(   12) = (  -0.1666667   0.5000000  -0.1666667), wk =   0.1481481
        k(   13) = (  -0.5000000   0.1666667   0.5000000), wk =   0.1481481
        k(   14) = (  -0.5000000   0.5000000   0.1666667), wk =   0.1481481

     Dense  grid:     3119 G-vectors     FFT dimensions: (  20,  20,  20)

     Estimated max dynamical RAM per process >       6.45 MB

     Initial potential from superposition of free atoms

     starting charge   11.99084, renormalised to   12.00000
     Starting wfcs are   16 randomized atomic wfcs
     Checking if some PAW data can be deallocated... 

     total cpu time spent up to now is        1.0 secs

     Self-consistent Calculation

     iteration #  1     ecut=    66.00 Ry     beta= 0.10
     Davidson diagonalization with overlap
     ethr =  1.00E-02,  avg # of iterations =  3.6

     total cpu time spent up to now is        1.5 secs

     total energy              =    -141.88808614 Ry
     Harris-Foulkes estimate   =    -142.04378461 Ry
     estimated scf accuracy    <       0.21459713 Ry

     iteration #  2     ecut=    66.00 Ry     beta= 0.10
     Davidson diagonalization with overlap
     ethr =  1.79E-03,  avg # of iterations =  1.2

     total cpu time spent up to now is        1.8 secs

     total energy              =    -141.38195251 Ry
     Harris-Foulkes estimate   =    -141.89090095 Ry
     estimated scf accuracy    <       0.18084734 Ry

     iteration #  3     ecut=    66.00 Ry     beta= 0.10
     Davidson diagonalization with overlap
     ethr =  1.51E-03,  avg # of iterations =  2.0

     total cpu time spent up to now is        2.2 secs

     total energy              =    -141.45013690 Ry
     Harris-Foulkes estimate   =    -141.46038029 Ry
     estimated scf accuracy    <       0.01783240 Ry

     iteration #  4     ecut=    66.00 Ry     beta= 0.10
     Davidson diagonalization with overlap
     ethr =  1.49E-04,  avg # of iterations =  1.0

     total cpu time spent up to now is        2.6 secs

     total energy              =    -141.45235480 Ry
     Harris-Foulkes estimate   =    -141.45071998 Ry
     estimated scf accuracy    <       0.01422206 Ry

     iteration #  5     ecut=    66.00 Ry     beta= 0.10
     Davidson diagonalization with overlap
     ethr =  1.19E-04,  avg # of iterations =  1.7

     total cpu time spent up to now is        2.9 secs

     total energy              =    -141.45521345 Ry
     Harris-Foulkes estimate   =    -141.45373719 Ry
     estimated scf accuracy    <       0.00040636 Ry

     iteration #  6     ecut=    66.00 Ry     beta= 0.10
     Davidson diagonalization with overlap
     ethr =  3.39E-06,  avg # of iterations =  3.0

     total cpu time spent up to now is        3.3 secs

     total energy              =    -141.45380284 Ry
     Harris-Foulkes estimate   =    -141.45547421 Ry
     estimated scf accuracy    <       0.00002216 Ry

     iteration #  7     ecut=    66.00 Ry     beta= 0.10
     Davidson diagonalization with overlap
     ethr =  1.85E-07,  avg # of iterations =  4.2

     total cpu time spent up to now is        3.8 secs

     total energy              =    -141.45358114 Ry
     Harris-Foulkes estimate   =    -141.45386916 Ry
     estimated scf accuracy    <       0.00005601 Ry

     iteration #  8     ecut=    66.00 Ry     beta= 0.10
     Davidson diagonalization with overlap
     ethr =  1.85E-07,  avg # of iterations =  3.0

     total cpu time spent up to now is        4.2 secs

     total energy              =    -141.45361069 Ry
     Harris-Foulkes estimate   =    -141.45360906 Ry
     estimated scf accuracy    <       0.00000210 Ry

     iteration #  9     ecut=    66.00 Ry     beta= 0.10
     Davidson diagonalization with overlap
     ethr =  1.75E-08,  avg # of iterations =  1.0

     total cpu time spent up to now is        4.5 secs

     total energy              =    -141.45360838 Ry
     Harris-Foulkes estimate   =    -141.45361075 Ry
     estimated scf accuracy    <       0.00000161 Ry

     iteration # 10     ecut=    66.00 Ry     beta= 0.10
     Davidson diagonalization with overlap
     ethr =  1.34E-08,  avg # of iterations =  2.0

     total cpu time spent up to now is        4.9 secs

     End of self-consistent calculation

          k = 0.1667 0.1667 0.1667 (   585 PWs)   bands (ev):

    32.1077  42.0044  42.0290  42.0535  52.3077  52.3343  52.3610  55.6794
    55.6908  55.7024

          k = 0.1667 0.1667-0.5000 (   600 PWs)   bands (ev):

    37.4319  37.4737  44.8076  44.8079  50.7514  50.7517  56.2371  56.2372
    57.3289  57.3717

          k = 0.1667-0.5000-0.5000 (   612 PWs)   bands (ev):

    41.7622  41.7707  41.8115  41.8202  51.9449  51.9561  51.9836  51.9951
    63.6980  63.7034

          k =-0.5000-0.5000-0.5000 (   624 PWs)   bands (ev):

    44.9256  44.9270  44.9289  44.9293  45.8177  45.8181  45.8200  45.8216
    75.1998  75.2001

          k =-0.1667-0.1667 0.1667 (   585 PWs)   bands (ev):

    32.1077  42.0095  42.0290  42.0483  52.3133  52.3343  52.3553  55.6819
    55.6910  55.7000

          k =-0.1667 0.1667-0.1667 (   585 PWs)   bands (ev):

    32.1077  42.0145  42.0291  42.0432  52.3187  52.3342  52.3499  55.6843
    55.6909  55.6977

          k = 0.1667-0.1667-0.1667 (   585 PWs)   bands (ev):

    32.1077  42.0118  42.0291  42.0459  52.3159  52.3344  52.3528  55.6829
    55.6909  55.6988

          k =-0.1667 0.1667 0.5000 (   600 PWs)   bands (ev):

    37.4319  37.4737  44.8077  44.8080  50.7513  50.7516  56.2368  56.2374
    57.3290  57.3718

          k =-0.5000-0.1667 0.1667 (   600 PWs)   bands (ev):

    37.4503  37.4552  44.8079  44.8079  50.7512  50.7514  56.2373  56.2376
    57.3478  57.3526

          k = 0.5000-0.1667-0.1667 (   600 PWs)   bands (ev):

    37.4503  37.4552  44.8078  44.8078  50.7516  50.7517  56.2360  56.2367
    57.3486  57.3535

          k =-0.1667-0.5000 0.1667 (   600 PWs)   bands (ev):

    37.4521  37.4534  44.8080  44.8081  50.7514  50.7515  56.2362  56.2373
    57.3497  57.3516

          k =-0.1667 0.5000-0.1667 (   600 PWs)   bands (ev):

    37.4521  37.4534  44.8079  44.8081  50.7513  50.7515  56.2367  56.2373
    57.3495  57.3513

          k =-0.5000 0.1667 0.5000 (   612 PWs)   bands (ev):

    41.7652  41.7746  41.8075  41.8170  51.9550  51.9660  51.9740  51.9849
    63.7010  63.7057

          k =-0.5000 0.5000 0.1667 (   612 PWs)   bands (ev):

    41.7688  41.7808  41.8014  41.8134  51.9405  51.9565  51.9834  51.9992
    63.6995  63.7077

     the Fermi energy is    52.5490 ev

!    total energy              =    -141.45360803 Ry
     Harris-Foulkes estimate   =    -141.45360867 Ry
     estimated scf accuracy    <       0.00000006 Ry

     total all-electron energy =     -1926.024730 Ry

     The total energy is the sum of the following terms:

     one-electron contribution =      58.69163538 Ry
     hartree contribution      =       0.25033808 Ry
     xc contribution           =     -17.30774284 Ry
     ewald contribution        =     -40.85514768 Ry
     one-center paw contrib.   =    -142.04381566 Ry
     smearing contrib. (-TS)   =      -0.18887532 Ry

     convergence has been achieved in  10 iterations

     Forces acting on atoms (cartesian axes, Ry/au):

     atom    1 type  1   force =     0.00189972   -0.00027920    0.01541932
     atom    2 type  1   force =    -0.00376552    0.00521306    0.01536108
     atom    3 type  1   force =     0.00019836   -0.00074865   -0.01669820
     atom    4 type  1   force =     0.00166744   -0.00418522   -0.01408220

     Total force =     0.031887     Total SCF correction =     0.000007


     Computing stress (Cartesian axis) and pressure

          total   stress  (Ry/bohr**3)                   (kbar)     P=60142.01
   0.40883875   0.00000230   0.00000163      60142.25      0.34      0.24
   0.00000230   0.40883663  -0.00000127          0.34  60141.94     -0.19
   0.00000163  -0.00000127   0.40883614          0.24     -0.19  60141.86


     Writing output data file fe_scf_fcc_2.save/

     init_run     :      0.56s CPU      0.58s WALL (       1 calls)
     electrons    :      3.84s CPU      3.88s WALL (       1 calls)
     forces       :      0.04s CPU      0.04s WALL (       1 calls)
     stress       :      0.10s CPU      0.09s WALL (       1 calls)

     Called by init_run:
     wfcinit      :      0.08s CPU      0.07s WALL (       1 calls)
     potinit      :      0.24s CPU      0.25s WALL (       1 calls)
     hinit0       :      0.24s CPU      0.24s WALL (       1 calls)

     Called by electrons:
     c_bands      :      1.15s CPU      1.19s WALL (      10 calls)
     sum_band     :      0.21s CPU      0.21s WALL (      10 calls)
     v_of_rho     :      0.05s CPU      0.06s WALL (      11 calls)
     newd         :      0.05s CPU      0.05s WALL (      11 calls)
     PAW_pot      :      2.61s CPU      2.62s WALL (      11 calls)
     mix_rho      :      0.01s CPU      0.01s WALL (      10 calls)

     Called by c_bands:
     init_us_2    :      0.11s CPU      0.06s WALL (     322 calls)
     cegterg      :      1.06s CPU      1.10s WALL (     140 calls)

     Called by sum_band:
     sum_band:bec :      0.00s CPU      0.00s WALL (     140 calls)
     addusdens    :      0.03s CPU      0.03s WALL (      10 calls)

     Called by *egterg:
     h_psi        :      0.82s CPU      0.83s WALL (     472 calls)
     s_psi        :      0.07s CPU      0.06s WALL (     472 calls)
     g_psi        :      0.00s CPU      0.01s WALL (     318 calls)
     cdiaghg      :      0.05s CPU      0.09s WALL (     458 calls)

     Called by h_psi:
     h_psi:pot    :      0.81s CPU      0.83s WALL (     472 calls)
     h_psi:calbec :      0.07s CPU      0.06s WALL (     472 calls)
     vloc_psi     :      0.68s CPU      0.71s WALL (     472 calls)
     add_vuspsi   :      0.06s CPU      0.06s WALL (     472 calls)

     General routines
     calbec       :      0.10s CPU      0.09s WALL (     682 calls)
     fft          :      0.02s CPU      0.01s WALL (     147 calls)
     ffts         :      0.00s CPU      0.00s WALL (      10 calls)
     fftw         :      0.64s CPU      0.72s WALL (    9532 calls)

     Parallel routines

     PWSCF        :     4.97s CPU         5.03s WALL


   This run was terminated on:   0:45:53  22Oct2019            

=------------------------------------------------------------------------------=
   JOB DONE.
=------------------------------------------------------------------------------=
