
     Program PWSCF v.6.3 starts on 22Oct2019 at 19: 9:19 

     This program is part of the open-source Quantum ESPRESSO suite
     for quantum simulation of materials; please cite
         "P. Giannozzi et al., J. Phys.:Condens. Matter 21 395502 (2009);
         "P. Giannozzi et al., J. Phys.:Condens. Matter 29 465901 (2017);
          URL http://www.quantum-espresso.org", 
     in publications or presentations arising from this work. More details at
     http://www.quantum-espresso.org/quote

     Parallel version (MPI & OpenMP), running on      20 processor cores
     Number of MPI processes:                20
     Threads/MPI process:                     1

     MPI processes distributed on     1 nodes
     R & G space division:  proc/nbgrp/npool/nimage =      20
     Reading input from /rds/homes/b/bxp912/jobs/20191022_test/wd/runpwscf/file_10199.in
Warning: card &IONS ignored
Warning: card ION_DYNAMICS = 'BFGS', ignored
Warning: card / ignored
Warning: card &CELL ignored
Warning: card CELL_DYNAMICS = 'BFGS', ignored
Warning: card CELL_FACTOR = 2.0, ignored
Warning: card PRESS = 0.0, ignored
Warning: card / ignored

     Current dimensions of program PWSCF are:
     Max number of different atomic species (ntypx) = 10
     Max number of k-points (npk) =  40000
     Max angular momentum in pseudopotentials (lmaxx) =  3
     Message from routine read_upf::
     Pseudo file /rds/homes/b/bxp912/pp/Al.pbe-nl-kjpaw_psl.1.0.0.UPF has been successfully fixed on the fly.
To avoid this message in the future you can permanently fix 
 your pseudo files following instructions given in: 
https://gitlab.com/QEF/q-e/blob/master/upftools/how_to_fix_upf.md
               file Al.pbe-nl-kjpaw_psl.1.0.0.UPF: wavefunction(s)  3S 3P renormalized

     Subspace diagonalization in iterative solution of the eigenvalue problem:
     a serial algorithm will be used

 
     Parallelization info
     --------------------
     sticks:   dense  smooth     PW     G-vecs:    dense   smooth      PW
     Min          17       6      2                  257       56      12
     Max          18       7      3                  262       59      15
     Sum         357     137     45                 5185     1141     251
 


     bravais-lattice index     =            0
     lattice parameter (alat)  =       4.0400  a.u.
     unit-cell volume          =      65.9393 (a.u.)^3
     number of atoms/cell      =            4
     number of atomic types    =            1
     number of electrons       =        12.00
     number of Kohn-Sham states=           10
     kinetic-energy cutoff     =      25.0000  Ry
     charge density cutoff     =     280.0000  Ry
     convergence threshold     =      1.0E-06
     mixing beta               =       0.1000
     number of iterations used =           10  TF        mixing
     Exchange-correlation      = SLA PW PBX PBC ( 1  4  3  4 0 0)

     celldm(1)=   4.040000  celldm(2)=   0.000000  celldm(3)=   0.000000
     celldm(4)=   0.000000  celldm(5)=   0.000000  celldm(6)=   0.000000

     crystal axes: (cart. coord. in units of alat)
               a(1) = (   1.000000   0.000000   0.000000 )  
               a(2) = (   0.000000   1.000000   0.000000 )  
               a(3) = (   0.000000   0.000000   1.000000 )  

     reciprocal axes: (cart. coord. in units 2 pi/alat)
               b(1) = (  1.000000  0.000000  0.000000 )  
               b(2) = (  0.000000  1.000000  0.000000 )  
               b(3) = (  0.000000  0.000000  1.000000 )  


     PseudoPot. # 1 for Al read from file:
     /rds/homes/b/bxp912/pp/Al.pbe-nl-kjpaw_psl.1.0.0.UPF
     MD5 check sum: 339dbea23cf3ab9a065ad45c0f9085d7
     Pseudo is Projector augmented-wave + core cor, Zval =  3.0
     Generated using "atomic" code by A. Dal Corso v.5.1
     Shape of augmentation charge: PSQ
     Using radial grid of 1135 points,  4 beta functions with: 
                l(1) =   0
                l(2) =   0
                l(3) =   1
                l(4) =   1
     Q(r) pseudized with 0 coefficients 


     atomic species   valence    mass     pseudopotential
        Al             3.00    26.98200     Al( 1.00)

     No symmetry found



   Cartesian axes

     site n.     atom                  positions (alat units)
         1           Al  tau(   1) = (  -0.0001235   0.0000359   0.0002572  )
         2           Al  tau(   2) = (   0.5003009   0.4992819   0.0002658  )
         3           Al  tau(   3) = (   0.4996490   0.0001153   0.5011170  )
         4           Al  tau(   4) = (  -0.0000756   0.5008267   0.5006943  )

     number of k points=    32  Marzari-Vanderbilt smearing, width (Ry)=  0.0200
                       cart. coord. in units 2pi/alat
        k(    1) = (   0.1250000   0.1250000   0.1250000), wk =   0.0625000
        k(    2) = (   0.1250000   0.1250000   0.3750000), wk =   0.0625000
        k(    3) = (   0.1250000   0.3750000   0.3750000), wk =   0.0625000
        k(    4) = (   0.3750000   0.3750000   0.3750000), wk =   0.0625000
        k(    5) = (  -0.1250000  -0.1250000   0.1250000), wk =   0.0625000
        k(    6) = (  -0.1250000   0.1250000  -0.1250000), wk =   0.0625000
        k(    7) = (   0.1250000  -0.1250000  -0.1250000), wk =   0.0625000
        k(    8) = (  -0.1250000  -0.1250000   0.3750000), wk =   0.0625000
        k(    9) = (  -0.1250000   0.1250000  -0.3750000), wk =   0.0625000
        k(   10) = (   0.1250000  -0.1250000  -0.3750000), wk =   0.0625000
        k(   11) = (   0.3750000  -0.1250000   0.1250000), wk =   0.0625000
        k(   12) = (  -0.3750000  -0.1250000  -0.1250000), wk =   0.0625000
        k(   13) = (   0.3750000   0.1250000  -0.1250000), wk =   0.0625000
        k(   14) = (  -0.3750000   0.1250000   0.1250000), wk =   0.0625000
        k(   15) = (  -0.1250000   0.3750000   0.1250000), wk =   0.0625000
        k(   16) = (  -0.1250000  -0.3750000  -0.1250000), wk =   0.0625000
        k(   17) = (   0.1250000   0.3750000  -0.1250000), wk =   0.0625000
        k(   18) = (   0.1250000  -0.3750000   0.1250000), wk =   0.0625000
        k(   19) = (  -0.1250000  -0.3750000   0.3750000), wk =   0.0625000
        k(   20) = (  -0.1250000   0.3750000  -0.3750000), wk =   0.0625000
        k(   21) = (   0.1250000  -0.3750000  -0.3750000), wk =   0.0625000
        k(   22) = (   0.3750000   0.1250000  -0.3750000), wk =   0.0625000
        k(   23) = (  -0.3750000  -0.1250000  -0.3750000), wk =   0.0625000
        k(   24) = (   0.3750000  -0.1250000   0.3750000), wk =   0.0625000
        k(   25) = (  -0.3750000   0.1250000   0.3750000), wk =   0.0625000
        k(   26) = (   0.3750000  -0.3750000   0.1250000), wk =   0.0625000
        k(   27) = (  -0.3750000  -0.3750000  -0.1250000), wk =   0.0625000
        k(   28) = (   0.3750000   0.3750000  -0.1250000), wk =   0.0625000
        k(   29) = (  -0.3750000   0.3750000   0.1250000), wk =   0.0625000
        k(   30) = (  -0.3750000  -0.3750000   0.3750000), wk =   0.0625000
        k(   31) = (  -0.3750000   0.3750000  -0.3750000), wk =   0.0625000
        k(   32) = (   0.3750000  -0.3750000  -0.3750000), wk =   0.0625000

     Dense  grid:     5185 G-vectors     FFT dimensions: (  24,  24,  24)

     Smooth grid:     1141 G-vectors     FFT dimensions: (  15,  15,  15)

     Estimated max dynamical RAM per process >       0.70 MB

     Estimated total dynamical RAM >      13.94 MB

     Initial potential from superposition of free atoms

     starting charge   11.99084, renormalised to   12.00000
     Starting wfcs are   16 randomized atomic wfcs
     Checking if some PAW data can be deallocated... 

     total cpu time spent up to now is        0.7 secs

     Self-consistent Calculation

     iteration #  1     ecut=    25.00 Ry     beta= 0.10
     Davidson diagonalization with overlap
     ethr =  1.00E-02,  avg # of iterations =  4.9

     total cpu time spent up to now is        0.9 secs

     total energy              =    -141.59669698 Ry
     Harris-Foulkes estimate   =    -141.75237466 Ry
     estimated scf accuracy    <       0.18308281 Ry

     iteration #  2     ecut=    25.00 Ry     beta= 0.10
     Davidson diagonalization with overlap
     ethr =  1.53E-03,  avg # of iterations =  1.0

     total cpu time spent up to now is        1.0 secs

     total energy              =    -141.10372865 Ry
     Harris-Foulkes estimate   =    -141.60023684 Ry
     estimated scf accuracy    <       0.15409493 Ry

     iteration #  3     ecut=    25.00 Ry     beta= 0.10
     Davidson diagonalization with overlap
     ethr =  1.28E-03,  avg # of iterations =  2.0

     total cpu time spent up to now is        1.1 secs

     total energy              =    -141.18541377 Ry
     Harris-Foulkes estimate   =    -141.20083473 Ry
     estimated scf accuracy    <       0.01625960 Ry

     iteration #  4     ecut=    25.00 Ry     beta= 0.10
     Davidson diagonalization with overlap
     ethr =  1.35E-04,  avg # of iterations =  1.0

     total cpu time spent up to now is        1.1 secs

     total energy              =    -141.18491583 Ry
     Harris-Foulkes estimate   =    -141.18592950 Ry
     estimated scf accuracy    <       0.01267824 Ry

     iteration #  5     ecut=    25.00 Ry     beta= 0.10
     Davidson diagonalization with overlap
     ethr =  1.06E-04,  avg # of iterations =  1.0

     total cpu time spent up to now is        1.2 secs

     total energy              =    -141.18739941 Ry
     Harris-Foulkes estimate   =    -141.18611066 Ry
     estimated scf accuracy    <       0.00048743 Ry

     iteration #  6     ecut=    25.00 Ry     beta= 0.10
     Davidson diagonalization with overlap
     ethr =  4.06E-06,  avg # of iterations =  2.8

     total cpu time spent up to now is        1.3 secs

     total energy              =    -141.18734082 Ry
     Harris-Foulkes estimate   =    -141.18760856 Ry
     estimated scf accuracy    <       0.00005832 Ry

     iteration #  7     ecut=    25.00 Ry     beta= 0.10
     Davidson diagonalization with overlap
     ethr =  4.86E-07,  avg # of iterations =  1.2

     total cpu time spent up to now is        1.4 secs

     total energy              =    -141.18612531 Ry
     Harris-Foulkes estimate   =    -141.18734221 Ry
     estimated scf accuracy    <       0.00004794 Ry

     iteration #  8     ecut=    25.00 Ry     beta= 0.10
     Davidson diagonalization with overlap
     ethr =  3.99E-07,  avg # of iterations =  3.0

     total cpu time spent up to now is        1.6 secs

     total energy              =    -141.18618623 Ry
     Harris-Foulkes estimate   =    -141.18620309 Ry
     estimated scf accuracy    <       0.00000600 Ry

     iteration #  9     ecut=    25.00 Ry     beta= 0.10
     Davidson diagonalization with overlap
     ethr =  5.00E-08,  avg # of iterations =  1.0

     total cpu time spent up to now is        1.6 secs

     total energy              =    -141.18613995 Ry
     Harris-Foulkes estimate   =    -141.18618641 Ry
     estimated scf accuracy    <       0.00000727 Ry

     iteration # 10     ecut=    25.00 Ry     beta= 0.10
     Davidson diagonalization with overlap
     ethr =  5.00E-08,  avg # of iterations =  2.8

     total cpu time spent up to now is        1.8 secs

     End of self-consistent calculation

          k = 0.1250 0.1250 0.1250 (   144 PWs)   bands (ev):

    30.9326  41.5203  41.5389  41.5572  52.5645  52.5850  52.6052  54.9735
    54.9838  54.9941

          k = 0.1250 0.1250 0.3750 (   138 PWs)   bands (ev):

    34.4231  39.0640  43.9992  44.0179  51.9438  51.9614  54.9737  54.9822
    55.8702  61.7714

          k = 0.1250 0.3750 0.3750 (   141 PWs)   bands (ev):

    37.4459  41.6920  41.7289  44.5879  50.5878  53.0484  53.0986  57.1535
    57.6917  60.8846

          k = 0.3750 0.3750 0.3750 (   145 PWs)   bands (ev):

    39.9366  44.0148  44.0525  44.0899  47.8483  47.8899  47.9315  51.7788
    67.2033  67.2080

          k =-0.1250-0.1250 0.1250 (   144 PWs)   bands (ev):

    30.9326  41.5241  41.5388  41.5533  52.5688  52.5848  52.6009  54.9757
    54.9838  54.9920

          k =-0.1250 0.1250-0.1250 (   144 PWs)   bands (ev):

    30.9326  41.5279  41.5388  41.5495  52.5729  52.5849  52.5967  54.9778
    54.9838  54.9899

          k = 0.1250-0.1250-0.1250 (   144 PWs)   bands (ev):

    30.9326  41.5259  41.5388  41.5515  52.5708  52.5849  52.5990  54.9767
    54.9838  54.9910

          k =-0.1250-0.1250 0.3750 (   138 PWs)   bands (ev):

    34.4231  39.0641  43.9992  44.0178  51.9438  51.9614  54.9737  54.9822
    55.8700  61.7716

          k =-0.1250 0.1250-0.3750 (   138 PWs)   bands (ev):

    34.4231  39.0640  44.0043  44.0128  51.9485  51.9566  54.9760  54.9800
    55.8701  61.7715

          k = 0.1250-0.1250-0.3750 (   138 PWs)   bands (ev):

    34.4231  39.0640  44.0043  44.0128  51.9485  51.9566  54.9760  54.9799
    55.8702  61.7710

          k = 0.3750-0.1250 0.1250 (   138 PWs)   bands (ev):

    34.4231  39.0639  44.0042  44.0129  51.9483  51.9565  54.9762  54.9801
    55.8702  61.7715

          k =-0.3750-0.1250-0.1250 (   138 PWs)   bands (ev):

    34.4231  39.0639  44.0006  44.0165  51.9452  51.9601  54.9740  54.9812
    55.8708  61.7717

          k = 0.3750 0.1250-0.1250 (   138 PWs)   bands (ev):

    34.4231  39.0639  44.0043  44.0129  51.9483  51.9565  54.9762  54.9801
    55.8703  61.7720

          k =-0.3750 0.1250 0.1250 (   138 PWs)   bands (ev):

    34.4231  39.0639  44.0006  44.0165  51.9453  51.9602  54.9741  54.9813
    55.8704  61.7716

          k =-0.1250 0.3750 0.1250 (   138 PWs)   bands (ev):

    34.4231  39.0638  44.0075  44.0099  51.9515  51.9537  54.9773  54.9784
    55.8701  61.7717

          k =-0.1250-0.3750-0.1250 (   138 PWs)   bands (ev):

    34.4231  39.0638  44.0041  44.0134  51.9481  51.9569  54.9758  54.9801
    55.8703  61.7716

          k = 0.1250 0.3750-0.1250 (   138 PWs)   bands (ev):

    34.4231  39.0638  44.0075  44.0099  51.9514  51.9537  54.9772  54.9784
    55.8705  61.7715

          k = 0.1250-0.3750 0.1250 (   138 PWs)   bands (ev):

    34.4231  39.0639  44.0040  44.0134  51.9482  51.9569  54.9758  54.9801
    55.8701  61.7716

          k =-0.1250-0.3750 0.3750 (   141 PWs)   bands (ev):

    37.4459  41.7005  41.7206  44.5878  50.5880  53.0597  53.0871  57.1528
    57.6927  60.8857

          k =-0.1250 0.3750-0.3750 (   141 PWs)   bands (ev):

    37.4459  41.7005  41.7206  44.5878  50.5879  53.0597  53.0871  57.1525
    57.6931  60.8845

          k = 0.1250-0.3750-0.3750 (   141 PWs)   bands (ev):

    37.4459  41.6921  41.7290  44.5880  50.5878  53.0484  53.0986  57.1531
    57.6920  60.8822

          k = 0.3750 0.1250-0.3750 (   141 PWs)   bands (ev):

    37.4459  41.7077  41.7133  44.5878  50.5878  53.0698  53.0774  57.1535
    57.6919  60.8853

          k =-0.3750-0.1250-0.3750 (   141 PWs)   bands (ev):

    37.4459  41.6997  41.7213  44.5877  50.5881  53.0589  53.0883  57.1537
    57.6915  60.8828

          k = 0.3750-0.1250 0.3750 (   141 PWs)   bands (ev):

    37.4459  41.6997  41.7214  44.5877  50.5879  53.0587  53.0882  57.1539
    57.6917  60.8829

          k =-0.3750 0.1250 0.3750 (   141 PWs)   bands (ev):

    37.4459  41.7077  41.7133  44.5878  50.5879  53.0698  53.0774  57.1532
    57.6920  60.8860

          k = 0.3750-0.3750 0.1250 (   141 PWs)   bands (ev):

    37.4459  41.7006  41.7204  44.5879  50.5876  53.0598  53.0870  57.1538
    57.6918  60.8850

          k =-0.3750-0.3750-0.1250 (   141 PWs)   bands (ev):

    37.4460  41.6889  41.7321  44.5877  50.5880  53.0439  53.1030  57.1517
    57.6937  60.8825

          k = 0.3750 0.3750-0.1250 (   141 PWs)   bands (ev):

    37.4460  41.6889  41.7322  44.5878  50.5878  53.0438  53.1029  57.1538
    57.6917  60.8801

          k =-0.3750 0.3750 0.1250 (   141 PWs)   bands (ev):

    37.4459  41.7006  41.7204  44.5878  50.5879  53.0600  53.0871  57.1491
    57.6962  60.8849

          k =-0.3750-0.3750 0.3750 (   145 PWs)   bands (ev):

    39.9365  44.0226  44.0525  44.0820  47.8571  47.8898  47.9228  51.7789
    67.2056  67.2089

          k =-0.3750 0.3750-0.3750 (   145 PWs)   bands (ev):

    39.9365  44.0303  44.0525  44.0743  47.8656  47.8899  47.9142  51.7790
    67.2056  67.2077

          k = 0.3750-0.3750-0.3750 (   145 PWs)   bands (ev):

    39.9365  44.0262  44.0524  44.0784  47.8612  47.8899  47.9189  51.7788
    67.2054  67.2079

     the Fermi energy is    52.7987 ev

!    total energy              =    -141.18614442 Ry
     Harris-Foulkes estimate   =    -141.18614603 Ry
     estimated scf accuracy    <       0.00000097 Ry

     total all-electron energy =     -1925.757272 Ry

     The total energy is the sum of the following terms:

     one-electron contribution =      58.74547338 Ry
     hartree contribution      =       0.21427896 Ry
     xc contribution           =     -17.28865956 Ry
     ewald contribution        =     -40.85514762 Ry
     one-center paw contrib.   =    -142.00155180 Ry
     smearing contrib. (-TS)   =      -0.00053778 Ry

     convergence has been achieved in  10 iterations

     Forces acting on atoms (cartesian axes, Ry/au):

     atom    1 type  1   force =     0.00205070   -0.00043443    0.01674489
     atom    2 type  1   force =    -0.00333453    0.00378779    0.01671798
     atom    3 type  1   force =    -0.00056609   -0.00066243   -0.01765775
     atom    4 type  1   force =     0.00184992   -0.00269093   -0.01580512

     Total force =     0.034099     Total SCF correction =     0.000021


     Computing stress (Cartesian axis) and pressure

          total   stress  (Ry/bohr**3)                   (kbar)     P=59561.58
   0.40489681   0.00000099   0.00000087      59562.37      0.15      0.13
   0.00000099   0.40488540  -0.00000117          0.15  59560.69     -0.17
   0.00000087  -0.00000117   0.40489221          0.13     -0.17  59561.69


     Writing output data file fe_scf_fcc_2.save/
 
     init_run     :      0.10s CPU      0.12s WALL (       1 calls)
     electrons    :      0.98s CPU      1.48s WALL (       1 calls)
     forces       :      0.02s CPU      0.02s WALL (       1 calls)
     stress       :      0.02s CPU      0.02s WALL (       1 calls)

     Called by init_run:
     wfcinit      :      0.03s CPU      0.04s WALL (       1 calls)
     potinit      :      0.01s CPU      0.02s WALL (       1 calls)
     hinit0       :      0.05s CPU      0.05s WALL (       1 calls)

     Called by electrons:
     c_bands      :      0.74s CPU      0.83s WALL (      10 calls)
     sum_band     :      0.10s CPU      0.11s WALL (      10 calls)
     v_of_rho     :      0.01s CPU      0.01s WALL (      11 calls)
     newd         :      0.00s CPU      0.00s WALL (      11 calls)
     PAW_pot      :      0.12s CPU      0.14s WALL (      11 calls)
     mix_rho      :      0.00s CPU      0.00s WALL (      10 calls)

     Called by c_bands:
     init_us_2    :      0.01s CPU      0.01s WALL (     736 calls)
     cegterg      :      0.72s CPU      0.80s WALL (     320 calls)

     Called by sum_band:
     sum_band:bec :      0.00s CPU      0.00s WALL (     320 calls)
     addusdens    :      0.00s CPU      0.00s WALL (      10 calls)

     Called by *egterg:
     h_psi        :      0.47s CPU      0.54s WALL (    1014 calls)
     s_psi        :      0.01s CPU      0.01s WALL (    1014 calls)
     g_psi        :      0.00s CPU      0.00s WALL (     662 calls)
     cdiaghg      :      0.18s CPU      0.20s WALL (     982 calls)

     Called by h_psi:
     h_psi:pot    :      0.47s CPU      0.53s WALL (    1014 calls)
     h_psi:calbec :      0.05s CPU      0.06s WALL (    1014 calls)
     vloc_psi     :      0.41s CPU      0.46s WALL (    1014 calls)
     add_vuspsi   :      0.01s CPU      0.01s WALL (    1014 calls)

     General routines
     calbec       :      0.07s CPU      0.08s WALL (    1494 calls)
     fft          :      0.05s CPU      0.05s WALL (     167 calls)
     ffts         :      0.00s CPU      0.00s WALL (      21 calls)
     fftw         :      0.45s CPU      0.51s WALL (   20514 calls)
     interpolate  :      0.00s CPU      0.00s WALL (      11 calls)
 
     Parallel routines
     fft_scatt_xy :      0.03s CPU      0.03s WALL (   20702 calls)
     fft_scatt_yz :      0.39s CPU      0.44s WALL (   20702 calls)
 
     PWSCF        :     1.67s CPU         2.47s WALL

 
   This run was terminated on:  19: 9:22  22Oct2019            

=------------------------------------------------------------------------------=
   JOB DONE.
=------------------------------------------------------------------------------=
