
     Program PWSCF v.6.3 starts on 19Oct2019 at 23:18:36 

     This program is part of the open-source Quantum ESPRESSO suite
     for quantum simulation of materials; please cite
         "P. Giannozzi et al., J. Phys.:Condens. Matter 21 395502 (2009);
         "P. Giannozzi et al., J. Phys.:Condens. Matter 29 465901 (2017);
          URL http://www.quantum-espresso.org", 
     in publications or presentations arising from this work. More details at
     http://www.quantum-espresso.org/quote

     Parallel version (MPI), running on     1 processors

     MPI processes distributed on     1 nodes
     Reading input from /cloud/Code/python/py_pwscf_converge/src/example/wd/runpwscf/file_10013.in
Warning: card &IONS ignored
Warning: card ION_DYNAMICS = 'BFGS', ignored
Warning: card / ignored
Warning: card &CELL ignored
Warning: card CELL_DYNAMICS = 'BFGS', ignored
Warning: card CELL_FACTOR = 2.0, ignored
Warning: card PRESS = 0.0, ignored
Warning: card / ignored

     Current dimensions of program PWSCF are:
     Max number of different atomic species (ntypx) = 10
     Max number of k-points (npk) =  40000
     Max angular momentum in pseudopotentials (lmaxx) =  3
               file Al.pbe-nl-kjpaw_psl.1.0.0.UPF: wavefunction(s)  3S 3P renormalized

     Subspace diagonalization in iterative solution of the eigenvalue problem:
     a serial algorithm will be used


     G-vector sticks info
     --------------------
     sticks:   dense  smooth     PW     G-vecs:    dense   smooth      PW
     Sum         177     177     97                 1839     1839     691



     bravais-lattice index     =            0
     lattice parameter (alat)  =       4.0400  a.u.
     unit-cell volume          =      65.9393 (a.u.)^3
     number of atoms/cell      =            4
     number of atomic types    =            1
     number of electrons       =        12.00
     number of Kohn-Sham states=           10
     kinetic-energy cutoff     =      55.0000  Ry
     charge density cutoff     =     140.0000  Ry
     convergence threshold     =      1.0E-06
     mixing beta               =       0.1000
     number of iterations used =           10  TF        mixing
     Exchange-correlation      = SLA PW PBX PBC ( 1  4  3  4 0 0)

     celldm(1)=   4.040000  celldm(2)=   0.000000  celldm(3)=   0.000000
     celldm(4)=   0.000000  celldm(5)=   0.000000  celldm(6)=   0.000000

     crystal axes: (cart. coord. in units of alat)
               a(1) = (   1.000000   0.000000   0.000000 )  
               a(2) = (   0.000000   1.000000   0.000000 )  
               a(3) = (   0.000000   0.000000   1.000000 )  

     reciprocal axes: (cart. coord. in units 2 pi/alat)
               b(1) = (  1.000000  0.000000  0.000000 )  
               b(2) = (  0.000000  1.000000  0.000000 )  
               b(3) = (  0.000000  0.000000  1.000000 )  


     PseudoPot. # 1 for Al read from file:
     /opt/pp/Al.pbe-nl-kjpaw_psl.1.0.0.UPF
     MD5 check sum: 1b67f78b73fe58c7924490f171ce8a1e
     Pseudo is Projector augmented-wave + core cor, Zval =  3.0
     Generated using "atomic" code by A. Dal Corso v.6.3
     Shape of augmentation charge: PSQ
     Using radial grid of 1135 points,  4 beta functions with: 
                l(1) =   0
                l(2) =   0
                l(3) =   1
                l(4) =   1
     Q(r) pseudized with 0 coefficients 


     atomic species   valence    mass     pseudopotential
        Al             3.00    26.98200     Al( 1.00)

     No symmetry found



   Cartesian axes

     site n.     atom                  positions (alat units)
         1           Al  tau(   1) = (  -0.0001235   0.0000359   0.0002572  )
         2           Al  tau(   2) = (   0.5003009   0.4992819   0.0002658  )
         3           Al  tau(   3) = (   0.4996490   0.0001153   0.5011170  )
         4           Al  tau(   4) = (  -0.0000756   0.5008267   0.5006943  )

     number of k points=    32  Marzari-Vanderbilt smearing, width (Ry)=  0.0200
                       cart. coord. in units 2pi/alat
        k(    1) = (   0.1250000   0.1250000   0.1250000), wk =   0.0625000
        k(    2) = (   0.1250000   0.1250000   0.3750000), wk =   0.0625000
        k(    3) = (   0.1250000   0.3750000   0.3750000), wk =   0.0625000
        k(    4) = (   0.3750000   0.3750000   0.3750000), wk =   0.0625000
        k(    5) = (  -0.1250000  -0.1250000   0.1250000), wk =   0.0625000
        k(    6) = (  -0.1250000   0.1250000  -0.1250000), wk =   0.0625000
        k(    7) = (   0.1250000  -0.1250000  -0.1250000), wk =   0.0625000
        k(    8) = (  -0.1250000  -0.1250000   0.3750000), wk =   0.0625000
        k(    9) = (  -0.1250000   0.1250000  -0.3750000), wk =   0.0625000
        k(   10) = (   0.1250000  -0.1250000  -0.3750000), wk =   0.0625000
        k(   11) = (   0.3750000  -0.1250000   0.1250000), wk =   0.0625000
        k(   12) = (  -0.3750000  -0.1250000  -0.1250000), wk =   0.0625000
        k(   13) = (   0.3750000   0.1250000  -0.1250000), wk =   0.0625000
        k(   14) = (  -0.3750000   0.1250000   0.1250000), wk =   0.0625000
        k(   15) = (  -0.1250000   0.3750000   0.1250000), wk =   0.0625000
        k(   16) = (  -0.1250000  -0.3750000  -0.1250000), wk =   0.0625000
        k(   17) = (   0.1250000   0.3750000  -0.1250000), wk =   0.0625000
        k(   18) = (   0.1250000  -0.3750000   0.1250000), wk =   0.0625000
        k(   19) = (  -0.1250000  -0.3750000   0.3750000), wk =   0.0625000
        k(   20) = (  -0.1250000   0.3750000  -0.3750000), wk =   0.0625000
        k(   21) = (   0.1250000  -0.3750000  -0.3750000), wk =   0.0625000
        k(   22) = (   0.3750000   0.1250000  -0.3750000), wk =   0.0625000
        k(   23) = (  -0.3750000  -0.1250000  -0.3750000), wk =   0.0625000
        k(   24) = (   0.3750000  -0.1250000   0.3750000), wk =   0.0625000
        k(   25) = (  -0.3750000   0.1250000   0.3750000), wk =   0.0625000
        k(   26) = (   0.3750000  -0.3750000   0.1250000), wk =   0.0625000
        k(   27) = (  -0.3750000  -0.3750000  -0.1250000), wk =   0.0625000
        k(   28) = (   0.3750000   0.3750000  -0.1250000), wk =   0.0625000
        k(   29) = (  -0.3750000   0.3750000   0.1250000), wk =   0.0625000
        k(   30) = (  -0.3750000  -0.3750000   0.3750000), wk =   0.0625000
        k(   31) = (  -0.3750000   0.3750000  -0.3750000), wk =   0.0625000
        k(   32) = (   0.3750000  -0.3750000  -0.3750000), wk =   0.0625000

     Dense  grid:     1839 G-vectors     FFT dimensions: (  15,  15,  15)

     Estimated max dynamical RAM per process >       5.30 MB

     Initial potential from superposition of free atoms

     starting charge   11.99084, renormalised to   12.00000
     Starting wfcs are   16 randomized atomic wfcs
     Checking if some PAW data can be deallocated... 

     total cpu time spent up to now is        1.0 secs

     Self-consistent Calculation

     iteration #  1     ecut=    55.00 Ry     beta= 0.10
     Davidson diagonalization with overlap
     ethr =  1.00E-02,  avg # of iterations =  4.9

     total cpu time spent up to now is        1.5 secs

     total energy              =    -141.65175978 Ry
     Harris-Foulkes estimate   =    -141.80598714 Ry
     estimated scf accuracy    <       0.18090838 Ry

     iteration #  2     ecut=    55.00 Ry     beta= 0.10
     Davidson diagonalization with overlap
     ethr =  1.51E-03,  avg # of iterations =  1.0

     total cpu time spent up to now is        1.9 secs

     total energy              =    -141.16255765 Ry
     Harris-Foulkes estimate   =    -141.65448047 Ry
     estimated scf accuracy    <       0.15222952 Ry

     iteration #  3     ecut=    55.00 Ry     beta= 0.10
     Davidson diagonalization with overlap
     ethr =  1.27E-03,  avg # of iterations =  2.0

     total cpu time spent up to now is        2.3 secs

     total energy              =    -141.24441800 Ry
     Harris-Foulkes estimate   =    -141.25878342 Ry
     estimated scf accuracy    <       0.01612112 Ry

     iteration #  4     ecut=    55.00 Ry     beta= 0.10
     Davidson diagonalization with overlap
     ethr =  1.34E-04,  avg # of iterations =  1.0

     total cpu time spent up to now is        2.7 secs

     total energy              =    -141.24070208 Ry
     Harris-Foulkes estimate   =    -141.24488807 Ry
     estimated scf accuracy    <       0.01271406 Ry

     iteration #  5     ecut=    55.00 Ry     beta= 0.10
     Davidson diagonalization with overlap
     ethr =  1.06E-04,  avg # of iterations =  1.0

     total cpu time spent up to now is        3.1 secs

     total energy              =    -141.24292101 Ry
     Harris-Foulkes estimate   =    -141.24181949 Ry
     estimated scf accuracy    <       0.00072704 Ry

     iteration #  6     ecut=    55.00 Ry     beta= 0.10
     Davidson diagonalization with overlap
     ethr =  6.06E-06,  avg # of iterations =  2.8

     total cpu time spent up to now is        3.5 secs

     total energy              =    -141.24311626 Ry
     Harris-Foulkes estimate   =    -141.24319335 Ry
     estimated scf accuracy    <       0.00008003 Ry

     iteration #  7     ecut=    55.00 Ry     beta= 0.10
     Davidson diagonalization with overlap
     ethr =  6.67E-07,  avg # of iterations =  1.2

     total cpu time spent up to now is        3.9 secs

     total energy              =    -141.24205721 Ry
     Harris-Foulkes estimate   =    -141.24311732 Ry
     estimated scf accuracy    <       0.00006855 Ry

     iteration #  8     ecut=    55.00 Ry     beta= 0.10
     Davidson diagonalization with overlap
     ethr =  5.71E-07,  avg # of iterations =  2.9

     total cpu time spent up to now is        4.3 secs

     total energy              =    -141.24213476 Ry
     Harris-Foulkes estimate   =    -141.24212604 Ry
     estimated scf accuracy    <       0.00000619 Ry

     iteration #  9     ecut=    55.00 Ry     beta= 0.10
     Davidson diagonalization with overlap
     ethr =  5.16E-08,  avg # of iterations =  1.0

     total cpu time spent up to now is        4.7 secs

     total energy              =    -141.24205277 Ry
     Harris-Foulkes estimate   =    -141.24213499 Ry
     estimated scf accuracy    <       0.00000877 Ry

     iteration # 10     ecut=    55.00 Ry     beta= 0.10
     Davidson diagonalization with overlap
     ethr =  5.16E-08,  avg # of iterations =  3.0

     total cpu time spent up to now is        5.1 secs

     total energy              =    -141.24206211 Ry
     Harris-Foulkes estimate   =    -141.24206245 Ry
     estimated scf accuracy    <       0.00000277 Ry

     iteration # 11     ecut=    55.00 Ry     beta= 0.10
     Davidson diagonalization with overlap
     ethr =  2.31E-08,  avg # of iterations =  1.0

     total cpu time spent up to now is        5.5 secs

     total energy              =    -141.24206161 Ry
     Harris-Foulkes estimate   =    -141.24206213 Ry
     estimated scf accuracy    <       0.00000232 Ry

     iteration # 12     ecut=    55.00 Ry     beta= 0.10
     Davidson diagonalization with overlap
     ethr =  1.93E-08,  avg # of iterations =  1.0

     total cpu time spent up to now is        5.8 secs

     End of self-consistent calculation

          k = 0.1250 0.1250 0.1250 (   452 PWs)   bands (ev):

    30.9174  41.4402  41.4581  41.4780  52.4308  52.4511  52.4712  54.9345
    54.9443  54.9544

          k = 0.1250 0.1250 0.3750 (   457 PWs)   bands (ev):

    34.4100  39.0162  43.9453  43.9641  51.8143  51.8316  54.8804  54.8891
    55.6942  61.5190

          k = 0.1250 0.3750 0.3750 (   451 PWs)   bands (ev):

    37.4252  41.6599  41.6968  44.5521  50.4967  52.9092  52.9584  57.0491
    57.5708  60.7350

          k = 0.3750 0.3750 0.3750 (   459 PWs)   bands (ev):

    39.8906  43.9794  44.0170  44.0551  47.7777  47.8192  47.8607  51.6532
    66.9767  66.9795

          k =-0.1250-0.1250 0.1250 (   452 PWs)   bands (ev):

    30.9174  41.4440  41.4584  41.4739  52.4351  52.4510  52.4670  54.9366
    54.9444  54.9523

          k =-0.1250 0.1250-0.1250 (   452 PWs)   bands (ev):

    30.9174  41.4475  41.4591  41.4696  52.4392  52.4511  52.4628  54.9386
    54.9444  54.9503

          k = 0.1250-0.1250-0.1250 (   452 PWs)   bands (ev):

    30.9174  41.4457  41.4587  41.4719  52.4370  52.4511  52.4651  54.9375
    54.9444  54.9513

          k =-0.1250-0.1250 0.3750 (   457 PWs)   bands (ev):

    34.4100  39.0162  43.9453  43.9641  51.8144  51.8316  54.8804  54.8891
    55.6939  61.5193

          k =-0.1250 0.1250-0.3750 (   457 PWs)   bands (ev):

    34.4100  39.0162  43.9504  43.9590  51.8190  51.8269  54.8828  54.8868
    55.6940  61.5191

          k = 0.1250-0.1250-0.3750 (   457 PWs)   bands (ev):

    34.4100  39.0162  43.9504  43.9591  51.8190  51.8269  54.8828  54.8868
    55.6942  61.5188

          k = 0.3750-0.1250 0.1250 (   457 PWs)   bands (ev):

    34.4101  39.0161  43.9504  43.9591  51.8188  51.8268  54.8829  54.8870
    55.6942  61.5192

          k =-0.3750-0.1250-0.1250 (   457 PWs)   bands (ev):

    34.4101  39.0161  43.9467  43.9628  51.8157  51.8304  54.8807  54.8881
    55.6948  61.5194

          k = 0.3750 0.1250-0.1250 (   457 PWs)   bands (ev):

    34.4101  39.0161  43.9504  43.9591  51.8188  51.8268  54.8829  54.8870
    55.6942  61.5192

          k =-0.3750 0.1250 0.1250 (   457 PWs)   bands (ev):

    34.4101  39.0161  43.9467  43.9627  51.8158  51.8305  54.8808  54.8882
    55.6944  61.5193

          k =-0.1250 0.3750 0.1250 (   457 PWs)   bands (ev):

    34.4100  39.0160  43.9537  43.9561  51.8219  51.8241  54.8841  54.8852
    55.6941  61.5192

          k =-0.1250-0.3750-0.1250 (   457 PWs)   bands (ev):

    34.4101  39.0160  43.9502  43.9596  51.8186  51.8272  54.8826  54.8869
    55.6942  61.5193

          k = 0.1250 0.3750-0.1250 (   457 PWs)   bands (ev):

    34.4100  39.0160  43.9537  43.9561  51.8218  51.8241  54.8840  54.8852
    55.6944  61.5192

          k = 0.1250-0.3750 0.1250 (   457 PWs)   bands (ev):

    34.4100  39.0161  43.9502  43.9596  51.8186  51.8272  54.8826  54.8869
    55.6941  61.5193

          k =-0.1250-0.3750 0.3750 (   451 PWs)   bands (ev):

    37.4251  41.6684  41.6885  44.5519  50.4969  52.9203  52.9471  57.0485
    57.5717  60.7380

          k =-0.1250 0.3750-0.3750 (   451 PWs)   bands (ev):

    37.4251  41.6684  41.6885  44.5520  50.4968  52.9203  52.9471  57.0481
    57.5722  60.7383

          k = 0.1250-0.3750-0.3750 (   451 PWs)   bands (ev):

    37.4251  41.6599  41.6968  44.5521  50.4967  52.9092  52.9584  57.0487
    57.5711  60.7343

          k = 0.3750 0.1250-0.3750 (   451 PWs)   bands (ev):

    37.4251  41.6756  41.6812  44.5520  50.4967  52.9301  52.9376  57.0492
    57.5710  60.7393

          k =-0.3750-0.1250-0.3750 (   451 PWs)   bands (ev):

    37.4251  41.6676  41.6892  44.5519  50.4969  52.9194  52.9483  57.0494
    57.5706  60.7384

          k = 0.3750-0.1250 0.3750 (   451 PWs)   bands (ev):

    37.4251  41.6676  41.6892  44.5519  50.4968  52.9193  52.9482  57.0495
    57.5708  60.7377

          k =-0.3750 0.1250 0.3750 (   451 PWs)   bands (ev):

    37.4251  41.6756  41.6812  44.5520  50.4968  52.9302  52.9376  57.0488
    57.5710  60.7394

          k = 0.3750-0.3750 0.1250 (   451 PWs)   bands (ev):

    37.4252  41.6684  41.6883  44.5520  50.4965  52.9205  52.9469  57.0494
    57.5709  60.7368

          k =-0.3750-0.3750-0.1250 (   451 PWs)   bands (ev):

    37.4252  41.6567  41.7001  44.5519  50.4969  52.9048  52.9626  57.0473
    57.5728  60.7346

          k = 0.3750 0.3750-0.1250 (   451 PWs)   bands (ev):

    37.4252  41.6567  41.7001  44.5520  50.4967  52.9048  52.9626  57.0494
    57.5707  60.7353

          k =-0.3750 0.3750 0.1250 (   451 PWs)   bands (ev):

    37.4252  41.6684  41.6883  44.5520  50.4968  52.9206  52.9470  57.0448
    57.5753  60.7368

          k =-0.3750-0.3750 0.3750 (   459 PWs)   bands (ev):

    39.8905  43.9873  44.0171  44.0471  47.7864  47.8191  47.8520  51.6533
    66.9768  66.9784

          k =-0.3750 0.3750-0.3750 (   459 PWs)   bands (ev):

    39.8905  43.9949  44.0173  44.0392  47.7949  47.8192  47.8435  51.6534
    66.9759  66.9787

          k = 0.3750-0.3750-0.3750 (   459 PWs)   bands (ev):

    39.8905  43.9909  44.0171  44.0434  47.7905  47.8192  47.8481  51.6532
    66.9757  66.9795

     the Fermi energy is    52.6630 ev

!    total energy              =    -141.24206111 Ry
     Harris-Foulkes estimate   =    -141.24206165 Ry
     estimated scf accuracy    <       0.00000042 Ry

     total all-electron energy =     -1925.813183 Ry

     The total energy is the sum of the following terms:

     one-electron contribution =      58.67363918 Ry
     hartree contribution      =       0.21199676 Ry
     xc contribution           =     -17.28554620 Ry
     ewald contribution        =     -40.85514766 Ry
     one-center paw contrib.   =    -141.98638968 Ry
     smearing contrib. (-TS)   =      -0.00061352 Ry

     convergence has been achieved in  12 iterations

     Forces acting on atoms (cartesian axes, Ry/au):

     atom    1 type  1   force =     0.00200629   -0.00037733    0.01643569
     atom    2 type  1   force =    -0.00322918    0.00371102    0.01640865
     atom    3 type  1   force =    -0.00056861   -0.00071197   -0.01728211
     atom    4 type  1   force =     0.00179149   -0.00262172   -0.01556222

     Total force =     0.033459     Total SCF correction =     0.000008


     Computing stress (Cartesian axis) and pressure

          total   stress  (Ry/bohr**3)                   (kbar)     P=59671.94
   0.40564705   0.00000111   0.00000086      59672.73      0.16      0.13
   0.00000111   0.40563593  -0.00000114          0.16  59671.10     -0.17
   0.00000086  -0.00000114   0.40564208          0.13     -0.17  59672.00


     Writing output data file fe_scf_fcc_2.save/

     init_run     :      0.55s CPU      0.56s WALL (       1 calls)
     electrons    :      4.68s CPU      4.85s WALL (       1 calls)
     forces       :      0.04s CPU      0.04s WALL (       1 calls)
     stress       :      0.12s CPU      0.12s WALL (       1 calls)

     Called by init_run:
     wfcinit      :      0.09s CPU      0.09s WALL (       1 calls)
     potinit      :      0.24s CPU      0.25s WALL (       1 calls)
     hinit0       :      0.21s CPU      0.22s WALL (       1 calls)

     Called by electrons:
     c_bands      :      1.56s CPU      1.59s WALL (      12 calls)
     sum_band     :      0.26s CPU      0.26s WALL (      12 calls)
     v_of_rho     :      0.02s CPU      0.03s WALL (      13 calls)
     newd         :      0.04s CPU      0.04s WALL (      13 calls)
     PAW_pot      :      3.03s CPU      3.17s WALL (      13 calls)
     mix_rho      :      0.01s CPU      0.00s WALL (      12 calls)

     Called by c_bands:
     init_us_2    :      0.11s CPU      0.13s WALL (     864 calls)
     cegterg      :      1.37s CPU      1.41s WALL (     384 calls)

     Called by sum_band:
     sum_band:bec :      0.00s CPU      0.00s WALL (     384 calls)
     addusdens    :      0.02s CPU      0.02s WALL (      12 calls)

     Called by *egterg:
     h_psi        :      0.86s CPU      0.89s WALL (    1141 calls)
     s_psi        :      0.08s CPU      0.11s WALL (    1141 calls)
     g_psi        :      0.02s CPU      0.02s WALL (     725 calls)
     cdiaghg      :      0.19s CPU      0.17s WALL (    1109 calls)

     Called by h_psi:
     h_psi:pot    :      0.84s CPU      0.88s WALL (    1141 calls)
     h_psi:calbec :      0.09s CPU      0.10s WALL (    1141 calls)
     vloc_psi     :      0.63s CPU      0.67s WALL (    1141 calls)
     add_vuspsi   :      0.12s CPU      0.11s WALL (    1141 calls)

     General routines
     calbec       :      0.15s CPU      0.16s WALL (    1685 calls)
     fft          :      0.01s CPU      0.01s WALL (     169 calls)
     ffts         :      0.00s CPU      0.00s WALL (      12 calls)
     fftw         :      0.62s CPU      0.66s WALL (   23860 calls)

     Parallel routines

     PWSCF        :     5.81s CPU         6.02s WALL


   This run was terminated on:  23:18:42  19Oct2019            

=------------------------------------------------------------------------------=
   JOB DONE.
=------------------------------------------------------------------------------=
