
     Program PWSCF v.6.3 starts on 20Oct2019 at  1: 7: 8 

     This program is part of the open-source Quantum ESPRESSO suite
     for quantum simulation of materials; please cite
         "P. Giannozzi et al., J. Phys.:Condens. Matter 21 395502 (2009);
         "P. Giannozzi et al., J. Phys.:Condens. Matter 29 465901 (2017);
          URL http://www.quantum-espresso.org", 
     in publications or presentations arising from this work. More details at
     http://www.quantum-espresso.org/quote

     Parallel version (MPI), running on     1 processors

     MPI processes distributed on     1 nodes
     Reading input from /cloud/Code/python/py_pwscf_converge/src/example/wd/runpwscf/file_10030.in
Warning: card &IONS ignored
Warning: card ION_DYNAMICS = 'BFGS', ignored
Warning: card / ignored
Warning: card &CELL ignored
Warning: card CELL_DYNAMICS = 'BFGS', ignored
Warning: card CELL_FACTOR = 2.0, ignored
Warning: card PRESS = 0.0, ignored
Warning: card / ignored

     Current dimensions of program PWSCF are:
     Max number of different atomic species (ntypx) = 10
     Max number of k-points (npk) =  40000
     Max angular momentum in pseudopotentials (lmaxx) =  3
               file Al.pbe-nl-kjpaw_psl.1.0.0.UPF: wavefunction(s)  3S 3P renormalized

     Subspace diagonalization in iterative solution of the eigenvalue problem:
     a serial algorithm will be used


     G-vector sticks info
     --------------------
     sticks:   dense  smooth     PW     G-vecs:    dense   smooth      PW
     Sum         213     213    109                 2301     2301     847



     bravais-lattice index     =            0
     lattice parameter (alat)  =       4.0400  a.u.
     unit-cell volume          =      65.9393 (a.u.)^3
     number of atoms/cell      =            4
     number of atomic types    =            1
     number of electrons       =        12.00
     number of Kohn-Sham states=           10
     kinetic-energy cutoff     =      65.0000  Ry
     charge density cutoff     =     160.0000  Ry
     convergence threshold     =      1.0E-06
     mixing beta               =       0.1000
     number of iterations used =           10  TF        mixing
     Exchange-correlation      = SLA PW PBX PBC ( 1  4  3  4 0 0)

     celldm(1)=   4.040000  celldm(2)=   0.000000  celldm(3)=   0.000000
     celldm(4)=   0.000000  celldm(5)=   0.000000  celldm(6)=   0.000000

     crystal axes: (cart. coord. in units of alat)
               a(1) = (   1.000000   0.000000   0.000000 )  
               a(2) = (   0.000000   1.000000   0.000000 )  
               a(3) = (   0.000000   0.000000   1.000000 )  

     reciprocal axes: (cart. coord. in units 2 pi/alat)
               b(1) = (  1.000000  0.000000  0.000000 )  
               b(2) = (  0.000000  1.000000  0.000000 )  
               b(3) = (  0.000000  0.000000  1.000000 )  


     PseudoPot. # 1 for Al read from file:
     /opt/pp/Al.pbe-nl-kjpaw_psl.1.0.0.UPF
     MD5 check sum: 1b67f78b73fe58c7924490f171ce8a1e
     Pseudo is Projector augmented-wave + core cor, Zval =  3.0
     Generated using "atomic" code by A. Dal Corso v.6.3
     Shape of augmentation charge: PSQ
     Using radial grid of 1135 points,  4 beta functions with: 
                l(1) =   0
                l(2) =   0
                l(3) =   1
                l(4) =   1
     Q(r) pseudized with 0 coefficients 


     atomic species   valence    mass     pseudopotential
        Al             3.00    26.98200     Al( 1.00)

     No symmetry found



   Cartesian axes

     site n.     atom                  positions (alat units)
         1           Al  tau(   1) = (  -0.0001235   0.0000359   0.0002572  )
         2           Al  tau(   2) = (   0.5003009   0.4992819   0.0002658  )
         3           Al  tau(   3) = (   0.4996490   0.0001153   0.5011170  )
         4           Al  tau(   4) = (  -0.0000756   0.5008267   0.5006943  )

     number of k points=    32  Marzari-Vanderbilt smearing, width (Ry)=  0.0200
                       cart. coord. in units 2pi/alat
        k(    1) = (   0.1250000   0.1250000   0.1250000), wk =   0.0625000
        k(    2) = (   0.1250000   0.1250000   0.3750000), wk =   0.0625000
        k(    3) = (   0.1250000   0.3750000   0.3750000), wk =   0.0625000
        k(    4) = (   0.3750000   0.3750000   0.3750000), wk =   0.0625000
        k(    5) = (  -0.1250000  -0.1250000   0.1250000), wk =   0.0625000
        k(    6) = (  -0.1250000   0.1250000  -0.1250000), wk =   0.0625000
        k(    7) = (   0.1250000  -0.1250000  -0.1250000), wk =   0.0625000
        k(    8) = (  -0.1250000  -0.1250000   0.3750000), wk =   0.0625000
        k(    9) = (  -0.1250000   0.1250000  -0.3750000), wk =   0.0625000
        k(   10) = (   0.1250000  -0.1250000  -0.3750000), wk =   0.0625000
        k(   11) = (   0.3750000  -0.1250000   0.1250000), wk =   0.0625000
        k(   12) = (  -0.3750000  -0.1250000  -0.1250000), wk =   0.0625000
        k(   13) = (   0.3750000   0.1250000  -0.1250000), wk =   0.0625000
        k(   14) = (  -0.3750000   0.1250000   0.1250000), wk =   0.0625000
        k(   15) = (  -0.1250000   0.3750000   0.1250000), wk =   0.0625000
        k(   16) = (  -0.1250000  -0.3750000  -0.1250000), wk =   0.0625000
        k(   17) = (   0.1250000   0.3750000  -0.1250000), wk =   0.0625000
        k(   18) = (   0.1250000  -0.3750000   0.1250000), wk =   0.0625000
        k(   19) = (  -0.1250000  -0.3750000   0.3750000), wk =   0.0625000
        k(   20) = (  -0.1250000   0.3750000  -0.3750000), wk =   0.0625000
        k(   21) = (   0.1250000  -0.3750000  -0.3750000), wk =   0.0625000
        k(   22) = (   0.3750000   0.1250000  -0.3750000), wk =   0.0625000
        k(   23) = (  -0.3750000  -0.1250000  -0.3750000), wk =   0.0625000
        k(   24) = (   0.3750000  -0.1250000   0.3750000), wk =   0.0625000
        k(   25) = (  -0.3750000   0.1250000   0.3750000), wk =   0.0625000
        k(   26) = (   0.3750000  -0.3750000   0.1250000), wk =   0.0625000
        k(   27) = (  -0.3750000  -0.3750000  -0.1250000), wk =   0.0625000
        k(   28) = (   0.3750000   0.3750000  -0.1250000), wk =   0.0625000
        k(   29) = (  -0.3750000   0.3750000   0.1250000), wk =   0.0625000
        k(   30) = (  -0.3750000  -0.3750000   0.3750000), wk =   0.0625000
        k(   31) = (  -0.3750000   0.3750000  -0.3750000), wk =   0.0625000
        k(   32) = (   0.3750000  -0.3750000  -0.3750000), wk =   0.0625000

     Dense  grid:     2301 G-vectors     FFT dimensions: (  18,  18,  18)

     Estimated max dynamical RAM per process >       6.79 MB

     Initial potential from superposition of free atoms

     starting charge   11.99084, renormalised to   12.00000
     Starting wfcs are   16 randomized atomic wfcs
     Checking if some PAW data can be deallocated... 

     total cpu time spent up to now is        1.1 secs

     Self-consistent Calculation

     iteration #  1     ecut=    65.00 Ry     beta= 0.10
     Davidson diagonalization with overlap
     ethr =  1.00E-02,  avg # of iterations =  4.9

     total cpu time spent up to now is        2.0 secs

     total energy              =    -141.65258301 Ry
     Harris-Foulkes estimate   =    -141.80686888 Ry
     estimated scf accuracy    <       0.18105850 Ry

     iteration #  2     ecut=    65.00 Ry     beta= 0.10
     Davidson diagonalization with overlap
     ethr =  1.51E-03,  avg # of iterations =  1.0

     total cpu time spent up to now is        2.5 secs

     total energy              =    -141.16254548 Ry
     Harris-Foulkes estimate   =    -141.65507416 Ry
     estimated scf accuracy    <       0.15210516 Ry

     iteration #  3     ecut=    65.00 Ry     beta= 0.10
     Davidson diagonalization with overlap
     ethr =  1.27E-03,  avg # of iterations =  2.0

     total cpu time spent up to now is        3.1 secs

     total energy              =    -141.24382504 Ry
     Harris-Foulkes estimate   =    -141.25667805 Ry
     estimated scf accuracy    <       0.01580231 Ry

     iteration #  4     ecut=    65.00 Ry     beta= 0.10
     Davidson diagonalization with overlap
     ethr =  1.32E-04,  avg # of iterations =  1.0

     total cpu time spent up to now is        3.7 secs

     total energy              =    -141.24132911 Ry
     Harris-Foulkes estimate   =    -141.24426469 Ry
     estimated scf accuracy    <       0.01256000 Ry

     iteration #  5     ecut=    65.00 Ry     beta= 0.10
     Davidson diagonalization with overlap
     ethr =  1.05E-04,  avg # of iterations =  1.0

     total cpu time spent up to now is        4.2 secs

     total energy              =    -141.24340663 Ry
     Harris-Foulkes estimate   =    -141.24242084 Ry
     estimated scf accuracy    <       0.00074612 Ry

     iteration #  6     ecut=    65.00 Ry     beta= 0.10
     Davidson diagonalization with overlap
     ethr =  6.22E-06,  avg # of iterations =  3.1

     total cpu time spent up to now is        4.9 secs

     total energy              =    -141.24364826 Ry
     Harris-Foulkes estimate   =    -141.24368164 Ry
     estimated scf accuracy    <       0.00009015 Ry

     iteration #  7     ecut=    65.00 Ry     beta= 0.10
     Davidson diagonalization with overlap
     ethr =  7.51E-07,  avg # of iterations =  1.1

     total cpu time spent up to now is        5.4 secs

     total energy              =    -141.24262576 Ry
     Harris-Foulkes estimate   =    -141.24364928 Ry
     estimated scf accuracy    <       0.00007396 Ry

     iteration #  8     ecut=    65.00 Ry     beta= 0.10
     Davidson diagonalization with overlap
     ethr =  6.16E-07,  avg # of iterations =  2.9

     total cpu time spent up to now is        6.1 secs

     total energy              =    -141.24271776 Ry
     Harris-Foulkes estimate   =    -141.24269541 Ry
     estimated scf accuracy    <       0.00000714 Ry

     iteration #  9     ecut=    65.00 Ry     beta= 0.10
     Davidson diagonalization with overlap
     ethr =  5.95E-08,  avg # of iterations =  1.5

     total cpu time spent up to now is        6.6 secs

     total energy              =    -141.24263146 Ry
     Harris-Foulkes estimate   =    -141.24271820 Ry
     estimated scf accuracy    <       0.00000776 Ry

     iteration # 10     ecut=    65.00 Ry     beta= 0.10
     Davidson diagonalization with overlap
     ethr =  5.95E-08,  avg # of iterations =  3.0

     total cpu time spent up to now is        7.3 secs

     total energy              =    -141.24264111 Ry
     Harris-Foulkes estimate   =    -141.24264187 Ry
     estimated scf accuracy    <       0.00000132 Ry

     iteration # 11     ecut=    65.00 Ry     beta= 0.10
     Davidson diagonalization with overlap
     ethr =  1.10E-08,  avg # of iterations =  1.0

     total cpu time spent up to now is        7.8 secs

     total energy              =    -141.24264099 Ry
     Harris-Foulkes estimate   =    -141.24264114 Ry
     estimated scf accuracy    <       0.00000121 Ry

     iteration # 12     ecut=    65.00 Ry     beta= 0.10
     Davidson diagonalization with overlap
     ethr =  1.01E-08,  avg # of iterations =  1.0

     total cpu time spent up to now is        8.4 secs

     End of self-consistent calculation

          k = 0.1250 0.1250 0.1250 (   585 PWs)   bands (ev):

    30.9174  41.4389  41.4580  41.4767  52.4300  52.4503  52.4704  54.9341
    54.9440  54.9540

          k = 0.1250 0.1250 0.3750 (   579 PWs)   bands (ev):

    34.4099  39.0159  43.9443  43.9631  51.8132  51.8305  54.8796  54.8883
    55.6933  61.5186

          k = 0.1250 0.3750 0.3750 (   589 PWs)   bands (ev):

    37.4249  41.6594  41.6963  44.5514  50.4957  52.9082  52.9573  57.0479
    57.5700  60.7331

          k = 0.3750 0.3750 0.3750 (   591 PWs)   bands (ev):

    39.8902  43.9788  44.0167  44.0545  47.7768  47.8183  47.8598  51.6521
    66.9757  66.9801

          k =-0.1250-0.1250 0.1250 (   585 PWs)   bands (ev):

    30.9174  41.4429  41.4579  41.4728  52.4343  52.4502  52.4662  54.9362
    54.9441  54.9519

          k =-0.1250 0.1250-0.1250 (   585 PWs)   bands (ev):

    30.9174  41.4468  41.4579  41.4689  52.4384  52.4503  52.4620  54.9383
    54.9440  54.9499

          k = 0.1250-0.1250-0.1250 (   585 PWs)   bands (ev):

    30.9174  41.4447  41.4579  41.4709  52.4362  52.4503  52.4642  54.9372
    54.9440  54.9510

          k =-0.1250-0.1250 0.3750 (   579 PWs)   bands (ev):

    34.4099  39.0159  43.9443  43.9631  51.8133  51.8305  54.8797  54.8883
    55.6930  61.5189

          k =-0.1250 0.1250-0.3750 (   579 PWs)   bands (ev):

    34.4099  39.0159  43.9494  43.9580  51.8179  51.8258  54.8820  54.8860
    55.6931  61.5189

          k = 0.1250-0.1250-0.3750 (   579 PWs)   bands (ev):

    34.4099  39.0159  43.9494  43.9581  51.8179  51.8258  54.8820  54.8860
    55.6933  61.5186

          k = 0.3750-0.1250 0.1250 (   579 PWs)   bands (ev):

    34.4099  39.0158  43.9494  43.9581  51.8177  51.8257  54.8821  54.8862
    55.6933  61.5187

          k =-0.3750-0.1250-0.1250 (   579 PWs)   bands (ev):

    34.4099  39.0158  43.9457  43.9618  51.8146  51.8293  54.8799  54.8873
    55.6939  61.5189

          k = 0.3750 0.1250-0.1250 (   579 PWs)   bands (ev):

    34.4099  39.0158  43.9494  43.9581  51.8177  51.8257  54.8821  54.8862
    55.6933  61.5189

          k =-0.3750 0.1250 0.1250 (   579 PWs)   bands (ev):

    34.4099  39.0158  43.9457  43.9617  51.8147  51.8294  54.8800  54.8874
    55.6935  61.5189

          k =-0.1250 0.3750 0.1250 (   579 PWs)   bands (ev):

    34.4099  39.0157  43.9527  43.9551  51.8208  51.8230  54.8833  54.8844
    55.6932  61.5189

          k =-0.1250-0.3750-0.1250 (   579 PWs)   bands (ev):

    34.4099  39.0157  43.9492  43.9586  51.8175  51.8261  54.8818  54.8861
    55.6933  61.5189

          k = 0.1250 0.3750-0.1250 (   579 PWs)   bands (ev):

    34.4099  39.0157  43.9527  43.9551  51.8208  51.8230  54.8832  54.8844
    55.6935  61.5188

          k = 0.1250-0.3750 0.1250 (   579 PWs)   bands (ev):

    34.4099  39.0157  43.9492  43.9586  51.8175  51.8261  54.8818  54.8861
    55.6932  61.5189

          k =-0.1250-0.3750 0.3750 (   589 PWs)   bands (ev):

    37.4248  41.6679  41.6880  44.5513  50.4958  52.9193  52.9461  57.0473
    57.5709  60.7362

          k =-0.1250 0.3750-0.3750 (   589 PWs)   bands (ev):

    37.4248  41.6679  41.6880  44.5513  50.4958  52.9192  52.9460  57.0469
    57.5714  60.7394

          k = 0.1250-0.3750-0.3750 (   589 PWs)   bands (ev):

    37.4249  41.6595  41.6964  44.5514  50.4957  52.9082  52.9573  57.0475
    57.5703  60.7332

          k = 0.3750 0.1250-0.3750 (   589 PWs)   bands (ev):

    37.4249  41.6751  41.6807  44.5513  50.4956  52.9291  52.9365  57.0479
    57.5702  60.7379

          k =-0.3750-0.1250-0.3750 (   589 PWs)   bands (ev):

    37.4249  41.6671  41.6887  44.5512  50.4959  52.9184  52.9473  57.0481
    57.5698  60.7376

          k = 0.3750-0.1250 0.3750 (   589 PWs)   bands (ev):

    37.4248  41.6671  41.6888  44.5512  50.4957  52.9183  52.9472  57.0483
    57.5700  60.7366

          k =-0.3750 0.1250 0.3750 (   589 PWs)   bands (ev):

    37.4248  41.6751  41.6807  44.5513  50.4958  52.9292  52.9366  57.0476
    57.5703  60.7388

          k = 0.3750-0.3750 0.1250 (   589 PWs)   bands (ev):

    37.4249  41.6680  41.6878  44.5513  50.4955  52.9194  52.9459  57.0482
    57.5701  60.7395

          k =-0.3750-0.3750-0.1250 (   589 PWs)   bands (ev):

    37.4249  41.6562  41.6996  44.5512  50.4959  52.9038  52.9616  57.0461
    57.5720  60.7321

          k = 0.3750 0.3750-0.1250 (   589 PWs)   bands (ev):

    37.4249  41.6563  41.6996  44.5513  50.4957  52.9038  52.9615  57.0482
    57.5700  60.7368

          k =-0.3750 0.3750 0.1250 (   589 PWs)   bands (ev):

    37.4249  41.6680  41.6878  44.5513  50.4958  52.9196  52.9460  57.0436
    57.5745  60.7361

          k =-0.3750-0.3750 0.3750 (   591 PWs)   bands (ev):

    39.8901  43.9867  44.0168  44.0465  47.7855  47.8182  47.8511  51.6522
    66.9771  66.9786

          k =-0.3750 0.3750-0.3750 (   591 PWs)   bands (ev):

    39.8901  43.9945  44.0167  44.0387  47.7940  47.8183  47.8426  51.6523
    66.9752  66.9785

          k = 0.3750-0.3750-0.3750 (   591 PWs)   bands (ev):

    39.8901  43.9903  44.0166  44.0429  47.7896  47.8183  47.8472  51.6522
    66.9751  66.9794

     the Fermi energy is    52.6622 ev

!    total energy              =    -141.24264032 Ry
     Harris-Foulkes estimate   =    -141.24264102 Ry
     estimated scf accuracy    <       0.00000023 Ry

     total all-electron energy =     -1925.813762 Ry

     The total energy is the sum of the following terms:

     one-electron contribution =      58.67309123 Ry
     hartree contribution      =       0.21196288 Ry
     xc contribution           =     -17.28552212 Ry
     ewald contribution        =     -40.85514931 Ry
     one-center paw contrib.   =    -141.98640623 Ry
     smearing contrib. (-TS)   =      -0.00061677 Ry

     convergence has been achieved in  12 iterations

     Forces acting on atoms (cartesian axes, Ry/au):

     atom    1 type  1   force =     0.00200462   -0.00039166    0.01643996
     atom    2 type  1   force =    -0.00324840    0.00373776    0.01641015
     atom    3 type  1   force =    -0.00055302   -0.00069812   -0.01730504
     atom    4 type  1   force =     0.00179680   -0.00264797   -0.01554507

     Total force =     0.033472     Total SCF correction =     0.000005


     Computing stress (Cartesian axis) and pressure

          total   stress  (Ry/bohr**3)                   (kbar)     P=59670.21
   0.40563521   0.00000111   0.00000096      59670.99      0.16      0.14
   0.00000111   0.40562409  -0.00000105          0.16  59669.35     -0.15
   0.00000096  -0.00000105   0.40563053          0.14     -0.15  59670.30


     Writing output data file fe_scf_fcc_2.save/

     init_run     :      0.69s CPU      0.70s WALL (       1 calls)
     electrons    :      7.09s CPU      7.26s WALL (       1 calls)
     forces       :      0.04s CPU      0.05s WALL (       1 calls)
     stress       :      0.15s CPU      0.15s WALL (       1 calls)

     Called by init_run:
     wfcinit      :      0.20s CPU      0.20s WALL (       1 calls)
     potinit      :      0.24s CPU      0.25s WALL (       1 calls)
     hinit0       :      0.24s CPU      0.24s WALL (       1 calls)

     Called by electrons:
     c_bands      :      3.47s CPU      3.51s WALL (      12 calls)
     sum_band     :      0.71s CPU      0.72s WALL (      12 calls)
     v_of_rho     :      0.05s CPU      0.06s WALL (      13 calls)
     newd         :      0.05s CPU      0.05s WALL (      13 calls)
     PAW_pot      :      3.04s CPU      3.17s WALL (      13 calls)
     mix_rho      :      0.01s CPU      0.01s WALL (      12 calls)

     Called by c_bands:
     init_us_2    :      0.14s CPU      0.16s WALL (     864 calls)
     cegterg      :      3.21s CPU      3.26s WALL (     384 calls)

     Called by sum_band:
     sum_band:bec :      0.00s CPU      0.00s WALL (     384 calls)
     addusdens    :      0.02s CPU      0.03s WALL (      12 calls)

     Called by *egterg:
     h_psi        :      2.66s CPU      2.71s WALL (    1165 calls)
     s_psi        :      0.11s CPU      0.13s WALL (    1165 calls)
     g_psi        :      0.03s CPU      0.02s WALL (     749 calls)
     cdiaghg      :      0.19s CPU      0.19s WALL (    1133 calls)

     Called by h_psi:
     h_psi:pot    :      2.66s CPU      2.69s WALL (    1165 calls)
     h_psi:calbec :      0.14s CPU      0.14s WALL (    1165 calls)
     vloc_psi     :      2.39s CPU      2.41s WALL (    1165 calls)
     add_vuspsi   :      0.12s CPU      0.14s WALL (    1165 calls)

     General routines
     calbec       :      0.19s CPU      0.20s WALL (    1709 calls)
     fft          :      0.02s CPU      0.03s WALL (     169 calls)
     ffts         :      0.01s CPU      0.00s WALL (      12 calls)
     fftw         :      2.77s CPU      2.75s WALL (   23910 calls)

     Parallel routines

     PWSCF        :     8.40s CPU         8.60s WALL


   This run was terminated on:   1: 7:16  20Oct2019            

=------------------------------------------------------------------------------=
   JOB DONE.
=------------------------------------------------------------------------------=
