
     Program PWSCF v.6.3 starts on 22Oct2019 at 19: 6:23 

     This program is part of the open-source Quantum ESPRESSO suite
     for quantum simulation of materials; please cite
         "P. Giannozzi et al., J. Phys.:Condens. Matter 21 395502 (2009);
         "P. Giannozzi et al., J. Phys.:Condens. Matter 29 465901 (2017);
          URL http://www.quantum-espresso.org", 
     in publications or presentations arising from this work. More details at
     http://www.quantum-espresso.org/quote

     Parallel version (MPI & OpenMP), running on      20 processor cores
     Number of MPI processes:                20
     Threads/MPI process:                     1

     MPI processes distributed on     1 nodes
     R & G space division:  proc/nbgrp/npool/nimage =      20
     Reading input from /rds/homes/b/bxp912/jobs/20191022_test/wd/runpwscf/file_10134.in
Warning: card &IONS ignored
Warning: card ION_DYNAMICS = 'BFGS', ignored
Warning: card / ignored
Warning: card &CELL ignored
Warning: card CELL_DYNAMICS = 'BFGS', ignored
Warning: card CELL_FACTOR = 2.0, ignored
Warning: card PRESS = 0.0, ignored
Warning: card / ignored

     Current dimensions of program PWSCF are:
     Max number of different atomic species (ntypx) = 10
     Max number of k-points (npk) =  40000
     Max angular momentum in pseudopotentials (lmaxx) =  3
     Message from routine read_upf::
     Pseudo file /rds/homes/b/bxp912/pp/Al.pbe-nl-kjpaw_psl.1.0.0.UPF has been successfully fixed on the fly.
To avoid this message in the future you can permanently fix 
 your pseudo files following instructions given in: 
https://gitlab.com/QEF/q-e/blob/master/upftools/how_to_fix_upf.md
               file Al.pbe-nl-kjpaw_psl.1.0.0.UPF: wavefunction(s)  3S 3P renormalized

     Subspace diagonalization in iterative solution of the eigenvalue problem:
     a serial algorithm will be used

 
     Parallelization info
     --------------------
     sticks:   dense  smooth     PW     G-vecs:    dense   smooth      PW
     Min          12      12      8                  135      135      74
     Max          13      13      9                  138      138      78
     Sum         241     241    161                 2721     2721    1503
 


     bravais-lattice index     =            0
     lattice parameter (alat)  =       4.0400  a.u.
     unit-cell volume          =      65.9393 (a.u.)^3
     number of atoms/cell      =            4
     number of atomic types    =            1
     number of electrons       =        12.00
     number of Kohn-Sham states=           10
     kinetic-energy cutoff     =     100.0000  Ry
     charge density cutoff     =     180.0000  Ry
     convergence threshold     =      1.0E-06
     mixing beta               =       0.1000
     number of iterations used =           10  TF        mixing
     Exchange-correlation      = SLA PW PBX PBC ( 1  4  3  4 0 0)

     celldm(1)=   4.040000  celldm(2)=   0.000000  celldm(3)=   0.000000
     celldm(4)=   0.000000  celldm(5)=   0.000000  celldm(6)=   0.000000

     crystal axes: (cart. coord. in units of alat)
               a(1) = (   1.000000   0.000000   0.000000 )  
               a(2) = (   0.000000   1.000000   0.000000 )  
               a(3) = (   0.000000   0.000000   1.000000 )  

     reciprocal axes: (cart. coord. in units 2 pi/alat)
               b(1) = (  1.000000  0.000000  0.000000 )  
               b(2) = (  0.000000  1.000000  0.000000 )  
               b(3) = (  0.000000  0.000000  1.000000 )  


     PseudoPot. # 1 for Al read from file:
     /rds/homes/b/bxp912/pp/Al.pbe-nl-kjpaw_psl.1.0.0.UPF
     MD5 check sum: 339dbea23cf3ab9a065ad45c0f9085d7
     Pseudo is Projector augmented-wave + core cor, Zval =  3.0
     Generated using "atomic" code by A. Dal Corso v.5.1
     Shape of augmentation charge: PSQ
     Using radial grid of 1135 points,  4 beta functions with: 
                l(1) =   0
                l(2) =   0
                l(3) =   1
                l(4) =   1
     Q(r) pseudized with 0 coefficients 


     atomic species   valence    mass     pseudopotential
        Al             3.00    26.98200     Al( 1.00)

     No symmetry found



   Cartesian axes

     site n.     atom                  positions (alat units)
         1           Al  tau(   1) = (  -0.0001235   0.0000359   0.0002572  )
         2           Al  tau(   2) = (   0.5003009   0.4992819   0.0002658  )
         3           Al  tau(   3) = (   0.4996490   0.0001153   0.5011170  )
         4           Al  tau(   4) = (  -0.0000756   0.5008267   0.5006943  )

     number of k points=    32  Marzari-Vanderbilt smearing, width (Ry)=  0.0200
                       cart. coord. in units 2pi/alat
        k(    1) = (   0.1250000   0.1250000   0.1250000), wk =   0.0625000
        k(    2) = (   0.1250000   0.1250000   0.3750000), wk =   0.0625000
        k(    3) = (   0.1250000   0.3750000   0.3750000), wk =   0.0625000
        k(    4) = (   0.3750000   0.3750000   0.3750000), wk =   0.0625000
        k(    5) = (  -0.1250000  -0.1250000   0.1250000), wk =   0.0625000
        k(    6) = (  -0.1250000   0.1250000  -0.1250000), wk =   0.0625000
        k(    7) = (   0.1250000  -0.1250000  -0.1250000), wk =   0.0625000
        k(    8) = (  -0.1250000  -0.1250000   0.3750000), wk =   0.0625000
        k(    9) = (  -0.1250000   0.1250000  -0.3750000), wk =   0.0625000
        k(   10) = (   0.1250000  -0.1250000  -0.3750000), wk =   0.0625000
        k(   11) = (   0.3750000  -0.1250000   0.1250000), wk =   0.0625000
        k(   12) = (  -0.3750000  -0.1250000  -0.1250000), wk =   0.0625000
        k(   13) = (   0.3750000   0.1250000  -0.1250000), wk =   0.0625000
        k(   14) = (  -0.3750000   0.1250000   0.1250000), wk =   0.0625000
        k(   15) = (  -0.1250000   0.3750000   0.1250000), wk =   0.0625000
        k(   16) = (  -0.1250000  -0.3750000  -0.1250000), wk =   0.0625000
        k(   17) = (   0.1250000   0.3750000  -0.1250000), wk =   0.0625000
        k(   18) = (   0.1250000  -0.3750000   0.1250000), wk =   0.0625000
        k(   19) = (  -0.1250000  -0.3750000   0.3750000), wk =   0.0625000
        k(   20) = (  -0.1250000   0.3750000  -0.3750000), wk =   0.0625000
        k(   21) = (   0.1250000  -0.3750000  -0.3750000), wk =   0.0625000
        k(   22) = (   0.3750000   0.1250000  -0.3750000), wk =   0.0625000
        k(   23) = (  -0.3750000  -0.1250000  -0.3750000), wk =   0.0625000
        k(   24) = (   0.3750000  -0.1250000   0.3750000), wk =   0.0625000
        k(   25) = (  -0.3750000   0.1250000   0.3750000), wk =   0.0625000
        k(   26) = (   0.3750000  -0.3750000   0.1250000), wk =   0.0625000
        k(   27) = (  -0.3750000  -0.3750000  -0.1250000), wk =   0.0625000
        k(   28) = (   0.3750000   0.3750000  -0.1250000), wk =   0.0625000
        k(   29) = (  -0.3750000   0.3750000   0.1250000), wk =   0.0625000
        k(   30) = (  -0.3750000  -0.3750000   0.3750000), wk =   0.0625000
        k(   31) = (  -0.3750000   0.3750000  -0.3750000), wk =   0.0625000
        k(   32) = (   0.3750000  -0.3750000  -0.3750000), wk =   0.0625000

     Dense  grid:     2721 G-vectors     FFT dimensions: (  18,  18,  18)

     Estimated max dynamical RAM per process >       0.77 MB

     Estimated total dynamical RAM >      15.36 MB

     Initial potential from superposition of free atoms

     starting charge   11.99084, renormalised to   12.00000
     Starting wfcs are   16 randomized atomic wfcs
     Checking if some PAW data can be deallocated... 

     total cpu time spent up to now is        0.7 secs

     Self-consistent Calculation

     iteration #  1     ecut=   100.00 Ry     beta= 0.10
     Davidson diagonalization with overlap
     ethr =  1.00E-02,  avg # of iterations =  4.9

     total cpu time spent up to now is        0.9 secs

     total energy              =    -141.65275651 Ry
     Harris-Foulkes estimate   =    -141.80703142 Ry
     estimated scf accuracy    <       0.18121311 Ry

     iteration #  2     ecut=   100.00 Ry     beta= 0.10
     Davidson diagonalization with overlap
     ethr =  1.51E-03,  avg # of iterations =  1.0

     total cpu time spent up to now is        1.0 secs

     total energy              =    -141.16263305 Ry
     Harris-Foulkes estimate   =    -141.65537477 Ry
     estimated scf accuracy    <       0.15203515 Ry

     iteration #  3     ecut=   100.00 Ry     beta= 0.10
     Davidson diagonalization with overlap
     ethr =  1.27E-03,  avg # of iterations =  2.0

     total cpu time spent up to now is        1.2 secs

     total energy              =    -141.24430947 Ry
     Harris-Foulkes estimate   =    -141.25575582 Ry
     estimated scf accuracy    <       0.01562347 Ry

     iteration #  4     ecut=   100.00 Ry     beta= 0.10
     Davidson diagonalization with overlap
     ethr =  1.30E-04,  avg # of iterations =  1.0

     total cpu time spent up to now is        1.3 secs

     total energy              =    -141.24167048 Ry
     Harris-Foulkes estimate   =    -141.24471251 Ry
     estimated scf accuracy    <       0.01255909 Ry

     iteration #  5     ecut=   100.00 Ry     beta= 0.10
     Davidson diagonalization with overlap
     ethr =  1.05E-04,  avg # of iterations =  1.0

     total cpu time spent up to now is        1.4 secs

     total energy              =    -141.24351374 Ry
     Harris-Foulkes estimate   =    -141.24273357 Ry
     estimated scf accuracy    <       0.00084775 Ry

     iteration #  6     ecut=   100.00 Ry     beta= 0.10
     Davidson diagonalization with overlap
     ethr =  7.06E-06,  avg # of iterations =  2.5

     total cpu time spent up to now is        1.5 secs

     total energy              =    -141.24380187 Ry
     Harris-Foulkes estimate   =    -141.24379293 Ry
     estimated scf accuracy    <       0.00011464 Ry

     iteration #  7     ecut=   100.00 Ry     beta= 0.10
     Davidson diagonalization with overlap
     ethr =  9.55E-07,  avg # of iterations =  1.2

     total cpu time spent up to now is        1.6 secs

     total energy              =    -141.24286556 Ry
     Harris-Foulkes estimate   =    -141.24380397 Ry
     estimated scf accuracy    <       0.00009098 Ry

     iteration #  8     ecut=   100.00 Ry     beta= 0.10
     Davidson diagonalization with overlap
     ethr =  7.58E-07,  avg # of iterations =  2.8

     total cpu time spent up to now is        1.7 secs

     total energy              =    -141.24304897 Ry
     Harris-Foulkes estimate   =    -141.24294507 Ry
     estimated scf accuracy    <       0.00002154 Ry

     iteration #  9     ecut=   100.00 Ry     beta= 0.10
     Davidson diagonalization with overlap
     ethr =  1.80E-07,  avg # of iterations =  2.0

     total cpu time spent up to now is        1.9 secs

     total energy              =    -141.24291382 Ry
     Harris-Foulkes estimate   =    -141.24305553 Ry
     estimated scf accuracy    <       0.00000777 Ry

     iteration # 10     ecut=   100.00 Ry     beta= 0.10
     Davidson diagonalization with overlap
     ethr =  6.47E-08,  avg # of iterations =  3.0

     total cpu time spent up to now is        2.0 secs

     End of self-consistent calculation

          k = 0.1250 0.1250 0.1250 (  1108 PWs)   bands (ev):

    30.9110  41.4356  41.4547  41.4735  52.4287  52.4490  52.4691  54.9287
    54.9386  54.9486

          k = 0.1250 0.1250 0.3750 (  1115 PWs)   bands (ev):

    34.4038  39.0105  43.9404  43.9593  51.8099  51.8272  54.8758  54.8845
    55.6920  61.5160

          k = 0.1250 0.3750 0.3750 (  1111 PWs)   bands (ev):

    37.4190  41.6540  41.6910  44.5463  50.4925  52.9052  52.9544  57.0455
    57.5672  60.7349

          k = 0.3750 0.3750 0.3750 (  1106 PWs)   bands (ev):

    39.8848  43.9736  44.0116  44.0494  47.7731  47.8146  47.8561  51.6488
    66.9744  66.9785

          k =-0.1250-0.1250 0.1250 (  1108 PWs)   bands (ev):

    30.9110  41.4396  41.4547  41.4695  52.4330  52.4489  52.4649  54.9308
    54.9387  54.9465

          k =-0.1250 0.1250-0.1250 (  1108 PWs)   bands (ev):

    30.9110  41.4435  41.4546  41.4656  52.4371  52.4490  52.4607  54.9329
    54.9386  54.9445

          k = 0.1250-0.1250-0.1250 (  1108 PWs)   bands (ev):

    30.9110  41.4414  41.4547  41.4677  52.4349  52.4490  52.4630  54.9318
    54.9386  54.9456

          k =-0.1250-0.1250 0.3750 (  1115 PWs)   bands (ev):

    34.4038  39.0106  43.9404  43.9593  51.8100  51.8272  54.8758  54.8845
    55.6917  61.5161

          k =-0.1250 0.1250-0.3750 (  1115 PWs)   bands (ev):

    34.4038  39.0106  43.9455  43.9542  51.8146  51.8225  54.8782  54.8822
    55.6918  61.5160

          k = 0.1250-0.1250-0.3750 (  1115 PWs)   bands (ev):

    34.4038  39.0105  43.9456  43.9542  51.8146  51.8225  54.8782  54.8821
    55.6920  61.5161

          k = 0.3750-0.1250 0.1250 (  1115 PWs)   bands (ev):

    34.4038  39.0104  43.9455  43.9543  51.8144  51.8224  54.8783  54.8823
    55.6920  61.5162

          k =-0.3750-0.1250-0.1250 (  1115 PWs)   bands (ev):

    34.4038  39.0104  43.9419  43.9579  51.8113  51.8260  54.8761  54.8835
    55.6926  61.5161

          k = 0.3750 0.1250-0.1250 (  1115 PWs)   bands (ev):

    34.4038  39.0104  43.9455  43.9543  51.8144  51.8224  54.8783  54.8824
    55.6920  61.5160

          k =-0.3750 0.1250 0.1250 (  1115 PWs)   bands (ev):

    34.4038  39.0105  43.9418  43.9579  51.8114  51.8261  54.8762  54.8836
    55.6922  61.5161

          k =-0.1250 0.3750 0.1250 (  1115 PWs)   bands (ev):

    34.4038  39.0104  43.9488  43.9512  51.8175  51.8197  54.8795  54.8806
    55.6919  61.5162

          k =-0.1250-0.3750-0.1250 (  1115 PWs)   bands (ev):

    34.4038  39.0103  43.9453  43.9548  51.8142  51.8228  54.8780  54.8823
    55.6920  61.5161

          k = 0.1250 0.3750-0.1250 (  1115 PWs)   bands (ev):

    34.4038  39.0104  43.9488  43.9513  51.8175  51.8197  54.8793  54.8805
    55.6923  61.5161

          k = 0.1250-0.3750 0.1250 (  1115 PWs)   bands (ev):

    34.4038  39.0104  43.9453  43.9547  51.8142  51.8229  54.8780  54.8823
    55.6919  61.5161

          k =-0.1250-0.3750 0.3750 (  1111 PWs)   bands (ev):

    37.4189  41.6625  41.6826  44.5461  50.4927  52.9163  52.9431  57.0449
    57.5681  60.7363

          k =-0.1250 0.3750-0.3750 (  1111 PWs)   bands (ev):

    37.4189  41.6625  41.6826  44.5461  50.4926  52.9163  52.9431  57.0445
    57.5686  60.7344

          k = 0.1250-0.3750-0.3750 (  1111 PWs)   bands (ev):

    37.4190  41.6540  41.6910  44.5463  50.4925  52.9052  52.9544  57.0451
    57.5675  60.7328

          k = 0.3750 0.1250-0.3750 (  1111 PWs)   bands (ev):

    37.4190  41.6697  41.6753  44.5462  50.4925  52.9262  52.9336  57.0456
    57.5674  60.7358

          k =-0.3750-0.1250-0.3750 (  1111 PWs)   bands (ev):

    37.4190  41.6616  41.6833  44.5460  50.4927  52.9155  52.9444  57.0458
    57.5670  60.7332

          k = 0.3750-0.1250 0.3750 (  1111 PWs)   bands (ev):

    37.4190  41.6617  41.6834  44.5461  50.4925  52.9154  52.9443  57.0459
    57.5672  60.7338

          k =-0.3750 0.1250 0.3750 (  1111 PWs)   bands (ev):

    37.4190  41.6697  41.6753  44.5461  50.4926  52.9263  52.9337  57.0452
    57.5674  60.7359

          k = 0.3750-0.3750 0.1250 (  1111 PWs)   bands (ev):

    37.4190  41.6626  41.6824  44.5462  50.4923  52.9165  52.9430  57.0458
    57.5672  60.7356

          k =-0.3750-0.3750-0.1250 (  1111 PWs)   bands (ev):

    37.4190  41.6508  41.6942  44.5461  50.4927  52.9009  52.9587  57.0437
    57.5692  60.7328

          k = 0.3750 0.3750-0.1250 (  1111 PWs)   bands (ev):

    37.4190  41.6508  41.6942  44.5461  50.4925  52.9008  52.9586  57.0458
    57.5672  60.7311

          k =-0.3750 0.3750 0.1250 (  1111 PWs)   bands (ev):

    37.4190  41.6625  41.6824  44.5462  50.4926  52.9166  52.9431  57.0411
    57.5717  60.7343

          k =-0.3750-0.3750 0.3750 (  1106 PWs)   bands (ev):

    39.8847  43.9815  44.0116  44.0414  47.7818  47.8146  47.8474  51.6489
    66.9734  66.9779

          k =-0.3750 0.3750-0.3750 (  1106 PWs)   bands (ev):

    39.8847  43.9893  44.0115  44.0336  47.7903  47.8146  47.8389  51.6490
    66.9738  66.9772

          k = 0.3750-0.3750-0.3750 (  1106 PWs)   bands (ev):

    39.8847  43.9852  44.0115  44.0377  47.7859  47.8147  47.8435  51.6488
    66.9730  66.9763

     the Fermi energy is    52.6604 ev

!    total energy              =    -141.24292335 Ry
     Harris-Foulkes estimate   =    -141.24292530 Ry
     estimated scf accuracy    <       0.00000082 Ry

     total all-electron energy =     -1925.814051 Ry

     The total energy is the sum of the following terms:

     one-electron contribution =      58.67290685 Ry
     hartree contribution      =       0.21193089 Ry
     xc contribution           =     -17.28524798 Ry
     ewald contribution        =     -40.85514779 Ry
     one-center paw contrib.   =    -141.98672216 Ry
     smearing contrib. (-TS)   =      -0.00064316 Ry

     convergence has been achieved in  10 iterations

     Forces acting on atoms (cartesian axes, Ry/au):

     atom    1 type  1   force =     0.00201899   -0.00039509    0.01640560
     atom    2 type  1   force =    -0.00325436    0.00367258    0.01637395
     atom    3 type  1   force =    -0.00057802   -0.00067223   -0.01726652
     atom    4 type  1   force =     0.00181339   -0.00260526   -0.01551303

     Total force =     0.033395     Total SCF correction =     0.000007


     Computing stress (Cartesian axis) and pressure

          total   stress  (Ry/bohr**3)                   (kbar)     P=59674.90
   0.40566725   0.00000116   0.00000080      59675.70      0.17      0.12
   0.00000116   0.40565594  -0.00000104          0.17  59674.04     -0.15
   0.00000080  -0.00000104   0.40566227          0.12     -0.15  59674.97


     Writing output data file fe_scf_fcc_2.save/
 
     init_run     :      0.11s CPU      0.17s WALL (       1 calls)
     electrons    :      1.20s CPU      1.33s WALL (       1 calls)
     forces       :      0.01s CPU      0.01s WALL (       1 calls)
     stress       :      0.01s CPU      0.02s WALL (       1 calls)

     Called by init_run:
     wfcinit      :      0.07s CPU      0.08s WALL (       1 calls)
     potinit      :      0.01s CPU      0.02s WALL (       1 calls)
     hinit0       :      0.02s CPU      0.06s WALL (       1 calls)

     Called by electrons:
     c_bands      :      0.91s CPU      1.01s WALL (      10 calls)
     sum_band     :      0.14s CPU      0.15s WALL (      10 calls)
     v_of_rho     :      0.01s CPU      0.01s WALL (      11 calls)
     newd         :      0.00s CPU      0.00s WALL (      11 calls)
     PAW_pot      :      0.13s CPU      0.14s WALL (      11 calls)
     mix_rho      :      0.00s CPU      0.00s WALL (      10 calls)

     Called by c_bands:
     init_us_2    :      0.01s CPU      0.01s WALL (     736 calls)
     cegterg      :      0.88s CPU      0.97s WALL (     320 calls)

     Called by sum_band:
     sum_band:bec :      0.00s CPU      0.00s WALL (     320 calls)
     addusdens    :      0.00s CPU      0.00s WALL (      10 calls)

     Called by *egterg:
     h_psi        :      0.64s CPU      0.71s WALL (    1037 calls)
     s_psi        :      0.01s CPU      0.01s WALL (    1037 calls)
     g_psi        :      0.00s CPU      0.00s WALL (     685 calls)
     cdiaghg      :      0.17s CPU      0.19s WALL (    1005 calls)

     Called by h_psi:
     h_psi:pot    :      0.64s CPU      0.71s WALL (    1037 calls)
     h_psi:calbec :      0.06s CPU      0.06s WALL (    1037 calls)
     vloc_psi     :      0.57s CPU      0.63s WALL (    1037 calls)
     add_vuspsi   :      0.01s CPU      0.01s WALL (    1037 calls)

     General routines
     calbec       :      0.08s CPU      0.09s WALL (    1517 calls)
     fft          :      0.02s CPU      0.06s WALL (     147 calls)
     ffts         :      0.00s CPU      0.00s WALL (      10 calls)
     fftw         :      0.64s CPU      0.71s WALL (   20784 calls)
 
     Parallel routines
     fft_scatt_xy :      0.04s CPU      0.04s WALL (   20941 calls)
     fft_scatt_yz :      0.52s CPU      0.58s WALL (   20941 calls)
 
     PWSCF        :     1.87s CPU         2.39s WALL

 
   This run was terminated on:  19: 6:26  22Oct2019            

=------------------------------------------------------------------------------=
   JOB DONE.
=------------------------------------------------------------------------------=
