
     Program PWSCF v.6.3 starts on 19Oct2019 at 18: 4:39 

     This program is part of the open-source Quantum ESPRESSO suite
     for quantum simulation of materials; please cite
         "P. Giannozzi et al., J. Phys.:Condens. Matter 21 395502 (2009);
         "P. Giannozzi et al., J. Phys.:Condens. Matter 29 465901 (2017);
          URL http://www.quantum-espresso.org", 
     in publications or presentations arising from this work. More details at
     http://www.quantum-espresso.org/quote

     Parallel version (MPI), running on     1 processors

     MPI processes distributed on     1 nodes
     Reading input from /cloud/Code/python/py_pwscf_converge/src/example/wd/runpwscf/file_10002.in
Warning: card &IONS ignored
Warning: card ION_DYNAMICS = 'BFGS', ignored
Warning: card / ignored
Warning: card &CELL ignored
Warning: card CELL_DYNAMICS = 'BFGS', ignored
Warning: card CELL_FACTOR = 2.0, ignored
Warning: card PRESS = 0.0, ignored
Warning: card / ignored

     Current dimensions of program PWSCF are:
     Max number of different atomic species (ntypx) = 10
     Max number of k-points (npk) =  40000
     Max angular momentum in pseudopotentials (lmaxx) =  3
               file Al.pbe-nl-kjpaw_psl.1.0.0.UPF: wavefunction(s)  3S 3P renormalized

     Subspace diagonalization in iterative solution of the eigenvalue problem:
     a serial algorithm will be used


     G-vector sticks info
     --------------------
     sticks:   dense  smooth     PW     G-vecs:    dense   smooth      PW
     Sum         177     177     61                 1839     1839     365



     bravais-lattice index     =            0
     lattice parameter (alat)  =       4.0400  a.u.
     unit-cell volume          =      65.9393 (a.u.)^3
     number of atoms/cell      =            4
     number of atomic types    =            1
     number of electrons       =        12.00
     number of Kohn-Sham states=           10
     kinetic-energy cutoff     =      35.0000  Ry
     charge density cutoff     =     140.0000  Ry
     convergence threshold     =      1.0E-06
     mixing beta               =       0.1000
     number of iterations used =           10  TF        mixing
     Exchange-correlation      = SLA PW PBX PBC ( 1  4  3  4 0 0)

     celldm(1)=   4.040000  celldm(2)=   0.000000  celldm(3)=   0.000000
     celldm(4)=   0.000000  celldm(5)=   0.000000  celldm(6)=   0.000000

     crystal axes: (cart. coord. in units of alat)
               a(1) = (   1.000000   0.000000   0.000000 )  
               a(2) = (   0.000000   1.000000   0.000000 )  
               a(3) = (   0.000000   0.000000   1.000000 )  

     reciprocal axes: (cart. coord. in units 2 pi/alat)
               b(1) = (  1.000000  0.000000  0.000000 )  
               b(2) = (  0.000000  1.000000  0.000000 )  
               b(3) = (  0.000000  0.000000  1.000000 )  


     PseudoPot. # 1 for Al read from file:
     /opt/pp/Al.pbe-nl-kjpaw_psl.1.0.0.UPF
     MD5 check sum: 1b67f78b73fe58c7924490f171ce8a1e
     Pseudo is Projector augmented-wave + core cor, Zval =  3.0
     Generated using "atomic" code by A. Dal Corso v.6.3
     Shape of augmentation charge: PSQ
     Using radial grid of 1135 points,  4 beta functions with: 
                l(1) =   0
                l(2) =   0
                l(3) =   1
                l(4) =   1
     Q(r) pseudized with 0 coefficients 


     atomic species   valence    mass     pseudopotential
        Al             3.00    26.98200     Al( 1.00)

     No symmetry found



   Cartesian axes

     site n.     atom                  positions (alat units)
         1           Al  tau(   1) = (  -0.0001235   0.0000359   0.0002572  )
         2           Al  tau(   2) = (   0.5003009   0.4992819   0.0002658  )
         3           Al  tau(   3) = (   0.4996490   0.0001153   0.5011170  )
         4           Al  tau(   4) = (  -0.0000756   0.5008267   0.5006943  )

     number of k points=    32  Marzari-Vanderbilt smearing, width (Ry)=  0.0200
                       cart. coord. in units 2pi/alat
        k(    1) = (   0.1250000   0.1250000   0.1250000), wk =   0.0625000
        k(    2) = (   0.1250000   0.1250000   0.3750000), wk =   0.0625000
        k(    3) = (   0.1250000   0.3750000   0.3750000), wk =   0.0625000
        k(    4) = (   0.3750000   0.3750000   0.3750000), wk =   0.0625000
        k(    5) = (  -0.1250000  -0.1250000   0.1250000), wk =   0.0625000
        k(    6) = (  -0.1250000   0.1250000  -0.1250000), wk =   0.0625000
        k(    7) = (   0.1250000  -0.1250000  -0.1250000), wk =   0.0625000
        k(    8) = (  -0.1250000  -0.1250000   0.3750000), wk =   0.0625000
        k(    9) = (  -0.1250000   0.1250000  -0.3750000), wk =   0.0625000
        k(   10) = (   0.1250000  -0.1250000  -0.3750000), wk =   0.0625000
        k(   11) = (   0.3750000  -0.1250000   0.1250000), wk =   0.0625000
        k(   12) = (  -0.3750000  -0.1250000  -0.1250000), wk =   0.0625000
        k(   13) = (   0.3750000   0.1250000  -0.1250000), wk =   0.0625000
        k(   14) = (  -0.3750000   0.1250000   0.1250000), wk =   0.0625000
        k(   15) = (  -0.1250000   0.3750000   0.1250000), wk =   0.0625000
        k(   16) = (  -0.1250000  -0.3750000  -0.1250000), wk =   0.0625000
        k(   17) = (   0.1250000   0.3750000  -0.1250000), wk =   0.0625000
        k(   18) = (   0.1250000  -0.3750000   0.1250000), wk =   0.0625000
        k(   19) = (  -0.1250000  -0.3750000   0.3750000), wk =   0.0625000
        k(   20) = (  -0.1250000   0.3750000  -0.3750000), wk =   0.0625000
        k(   21) = (   0.1250000  -0.3750000  -0.3750000), wk =   0.0625000
        k(   22) = (   0.3750000   0.1250000  -0.3750000), wk =   0.0625000
        k(   23) = (  -0.3750000  -0.1250000  -0.3750000), wk =   0.0625000
        k(   24) = (   0.3750000  -0.1250000   0.3750000), wk =   0.0625000
        k(   25) = (  -0.3750000   0.1250000   0.3750000), wk =   0.0625000
        k(   26) = (   0.3750000  -0.3750000   0.1250000), wk =   0.0625000
        k(   27) = (  -0.3750000  -0.3750000  -0.1250000), wk =   0.0625000
        k(   28) = (   0.3750000   0.3750000  -0.1250000), wk =   0.0625000
        k(   29) = (  -0.3750000   0.3750000   0.1250000), wk =   0.0625000
        k(   30) = (  -0.3750000  -0.3750000   0.3750000), wk =   0.0625000
        k(   31) = (  -0.3750000   0.3750000  -0.3750000), wk =   0.0625000
        k(   32) = (   0.3750000  -0.3750000  -0.3750000), wk =   0.0625000

     Dense  grid:     1839 G-vectors     FFT dimensions: (  15,  15,  15)

     Estimated max dynamical RAM per process >       4.06 MB

     Initial potential from superposition of free atoms

     starting charge   11.99084, renormalised to   12.00000
     Starting wfcs are   16 randomized atomic wfcs
     Checking if some PAW data can be deallocated... 

     total cpu time spent up to now is        2.7 secs

     Self-consistent Calculation

     iteration #  1     ecut=    35.00 Ry     beta= 0.10
     Davidson diagonalization with overlap
     ethr =  1.00E-02,  avg # of iterations =  4.6

     total cpu time spent up to now is        3.2 secs

     total energy              =    -141.64780196 Ry
     Harris-Foulkes estimate   =    -141.80233686 Ry
     estimated scf accuracy    <       0.18111772 Ry

     iteration #  2     ecut=    35.00 Ry     beta= 0.10
     Davidson diagonalization with overlap
     ethr =  1.51E-03,  avg # of iterations =  1.0

     total cpu time spent up to now is        3.6 secs

     total energy              =    -141.15680132 Ry
     Harris-Foulkes estimate   =    -141.65111882 Ry
     estimated scf accuracy    <       0.15194727 Ry

     iteration #  3     ecut=    35.00 Ry     beta= 0.10
     Davidson diagonalization with overlap
     ethr =  1.27E-03,  avg # of iterations =  2.0

     total cpu time spent up to now is        4.0 secs

     total energy              =    -141.23444253 Ry
     Harris-Foulkes estimate   =    -141.24471468 Ry
     estimated scf accuracy    <       0.01490022 Ry

     iteration #  4     ecut=    35.00 Ry     beta= 0.10
     Davidson diagonalization with overlap
     ethr =  1.24E-04,  avg # of iterations =  1.0

     total cpu time spent up to now is        4.4 secs

     total energy              =    -141.23718838 Ry
     Harris-Foulkes estimate   =    -141.23497236 Ry
     estimated scf accuracy    <       0.01158274 Ry

     iteration #  5     ecut=    35.00 Ry     beta= 0.10
     Davidson diagonalization with overlap
     ethr =  9.65E-05,  avg # of iterations =  1.5

     total cpu time spent up to now is        4.7 secs

     total energy              =    -141.23910524 Ry
     Harris-Foulkes estimate   =    -141.23832999 Ry
     estimated scf accuracy    <       0.00051782 Ry

     iteration #  6     ecut=    35.00 Ry     beta= 0.10
     Davidson diagonalization with overlap
     ethr =  4.32E-06,  avg # of iterations =  2.4

     total cpu time spent up to now is        5.1 secs

     total energy              =    -141.23926217 Ry
     Harris-Foulkes estimate   =    -141.23926708 Ry
     estimated scf accuracy    <       0.00011065 Ry

     iteration #  7     ecut=    35.00 Ry     beta= 0.10
     Davidson diagonalization with overlap
     ethr =  9.22E-07,  avg # of iterations =  1.0

     total cpu time spent up to now is        5.5 secs

     total energy              =    -141.23876808 Ry
     Harris-Foulkes estimate   =    -141.23926416 Ry
     estimated scf accuracy    <       0.00011680 Ry

     iteration #  8     ecut=    35.00 Ry     beta= 0.10
     Davidson diagonalization with overlap
     ethr =  9.22E-07,  avg # of iterations =  1.1

     total cpu time spent up to now is        5.9 secs

     total energy              =    -141.23847300 Ry
     Harris-Foulkes estimate   =    -141.23877943 Ry
     estimated scf accuracy    <       0.00003276 Ry

     iteration #  9     ecut=    35.00 Ry     beta= 0.10
     Davidson diagonalization with overlap
     ethr =  2.73E-07,  avg # of iterations =  2.9

     total cpu time spent up to now is        6.3 secs

     total energy              =    -141.23850772 Ry
     Harris-Foulkes estimate   =    -141.23849344 Ry
     estimated scf accuracy    <       0.00000453 Ry

     iteration # 10     ecut=    35.00 Ry     beta= 0.10
     Davidson diagonalization with overlap
     ethr =  3.78E-08,  avg # of iterations =  2.0

     total cpu time spent up to now is        6.7 secs

     total energy              =    -141.23844526 Ry
     Harris-Foulkes estimate   =    -141.23850823 Ry
     estimated scf accuracy    <       0.00000824 Ry

     iteration # 11     ecut=    35.00 Ry     beta= 0.10
     Davidson diagonalization with overlap
     ethr =  3.78E-08,  avg # of iterations =  3.0

     total cpu time spent up to now is        7.1 secs

     End of self-consistent calculation

          k = 0.1250 0.1250 0.1250 (   233 PWs)   bands (ev):

    30.9198  41.4430  41.4611  41.4807  52.4417  52.4622  52.4820  54.9380
    54.9481  54.9578

          k = 0.1250 0.1250 0.3750 (   228 PWs)   bands (ev):

    34.4121  39.0203  43.9504  43.9693  51.8238  51.8411  54.8900  54.8986
    55.7125  61.5412

          k = 0.1250 0.3750 0.3750 (   231 PWs)   bands (ev):

    37.4277  41.6632  41.6998  44.5549  50.5004  52.9190  52.9679  57.0712
    57.5859  60.7534

          k = 0.3750 0.3750 0.3750 (   244 PWs)   bands (ev):

    39.8930  43.9818  44.0194  44.0571  47.7804  47.8219  47.8630  51.6564
    66.9858  66.9899

          k =-0.1250-0.1250 0.1250 (   233 PWs)   bands (ev):

    30.9198  41.4468  41.4614  41.4767  52.4460  52.4618  52.4780  54.9402
    54.9478  54.9559

          k =-0.1250 0.1250-0.1250 (   233 PWs)   bands (ev):

    30.9198  41.4503  41.4621  41.4724  52.4500  52.4621  52.4737  54.9421
    54.9481  54.9537

          k = 0.1250-0.1250-0.1250 (   233 PWs)   bands (ev):

    30.9198  41.4485  41.4616  41.4747  52.4480  52.4619  52.4760  54.9411
    54.9478  54.9549

          k =-0.1250-0.1250 0.3750 (   228 PWs)   bands (ev):

    34.4121  39.0203  43.9504  43.9692  51.8238  51.8411  54.8900  54.8987
    55.7122  61.5414

          k =-0.1250 0.1250-0.3750 (   228 PWs)   bands (ev):

    34.4121  39.0203  43.9555  43.9642  51.8284  51.8364  54.8923  54.8963
    55.7123  61.5415

          k = 0.1250-0.1250-0.3750 (   228 PWs)   bands (ev):

    34.4121  39.0203  43.9555  43.9642  51.8284  51.8364  54.8923  54.8963
    55.7125  61.5412

          k = 0.3750-0.1250 0.1250 (   228 PWs)   bands (ev):

    34.4122  39.0202  43.9555  43.9642  51.8283  51.8363  54.8925  54.8965
    55.7125  61.5415

          k =-0.3750-0.1250-0.1250 (   228 PWs)   bands (ev):

    34.4122  39.0202  43.9519  43.9679  51.8252  51.8398  54.8903  54.8976
    55.7131  61.5415

          k = 0.3750 0.1250-0.1250 (   228 PWs)   bands (ev):

    34.4122  39.0202  43.9555  43.9642  51.8283  51.8362  54.8925  54.8965
    55.7125  61.5415

          k =-0.3750 0.1250 0.1250 (   228 PWs)   bands (ev):

    34.4122  39.0202  43.9518  43.9678  51.8253  51.8399  54.8904  54.8977
    55.7127  61.5415

          k =-0.1250 0.3750 0.1250 (   228 PWs)   bands (ev):

    34.4122  39.0201  43.9588  43.9612  51.8313  51.8336  54.8936  54.8948
    55.7124  61.5415

          k =-0.1250-0.3750-0.1250 (   228 PWs)   bands (ev):

    34.4122  39.0201  43.9553  43.9647  51.8281  51.8367  54.8921  54.8965
    55.7125  61.5415

          k = 0.1250 0.3750-0.1250 (   228 PWs)   bands (ev):

    34.4122  39.0201  43.9588  43.9612  51.8313  51.8335  54.8935  54.8947
    55.7128  61.5414

          k = 0.1250-0.3750 0.1250 (   228 PWs)   bands (ev):

    34.4122  39.0202  43.9553  43.9647  51.8281  51.8367  54.8921  54.8964
    55.7124  61.5415

          k =-0.1250-0.3750 0.3750 (   231 PWs)   bands (ev):

    37.4277  41.6715  41.6916  44.5547  50.5006  52.9300  52.9567  57.0705
    57.5868  60.7564

          k =-0.1250 0.3750-0.3750 (   231 PWs)   bands (ev):

    37.4277  41.6715  41.6916  44.5548  50.5006  52.9300  52.9567  57.0702
    57.5873  60.7524

          k = 0.1250-0.3750-0.3750 (   231 PWs)   bands (ev):

    37.4277  41.6632  41.6998  44.5549  50.5005  52.9190  52.9679  57.0708
    57.5861  60.7491

          k = 0.3750 0.1250-0.3750 (   231 PWs)   bands (ev):

    37.4277  41.6787  41.6842  44.5548  50.5004  52.9398  52.9472  57.0712
    57.5861  60.7541

          k =-0.3750-0.1250-0.3750 (   231 PWs)   bands (ev):

    37.4277  41.6708  41.6922  44.5547  50.5007  52.9292  52.9579  57.0714
    57.5857  60.7513

          k = 0.3750-0.1250 0.3750 (   231 PWs)   bands (ev):

    37.4277  41.6708  41.6923  44.5547  50.5005  52.9291  52.9578  57.0716
    57.5858  60.7511

          k =-0.3750 0.1250 0.3750 (   231 PWs)   bands (ev):

    37.4277  41.6787  41.6842  44.5548  50.5005  52.9399  52.9473  57.0709
    57.5861  60.7551

          k = 0.3750-0.3750 0.1250 (   231 PWs)   bands (ev):

    37.4277  41.6715  41.6915  44.5548  50.5002  52.9301  52.9567  57.0715
    57.5859  60.7540

          k =-0.3750-0.3750-0.1250 (   231 PWs)   bands (ev):

    37.4278  41.6599  41.7032  44.5547  50.5006  52.9146  52.9722  57.0694
    57.5878  60.7515

          k = 0.3750 0.3750-0.1250 (   231 PWs)   bands (ev):

    37.4277  41.6599  41.7032  44.5547  50.5005  52.9145  52.9722  57.0715
    57.5858  60.7484

          k =-0.3750 0.3750 0.1250 (   231 PWs)   bands (ev):

    37.4277  41.6715  41.6915  44.5548  50.5006  52.9302  52.9568  57.0668
    57.5904  60.7530

          k =-0.3750-0.3750 0.3750 (   244 PWs)   bands (ev):

    39.8930  43.9896  44.0194  44.0493  47.7891  47.8216  47.8546  51.6565
    66.9873  66.9911

          k =-0.3750 0.3750-0.3750 (   244 PWs)   bands (ev):

    39.8929  43.9972  44.0197  44.0413  47.7975  47.8219  47.8459  51.6565
    66.9869  66.9895

          k = 0.3750-0.3750-0.3750 (   244 PWs)   bands (ev):

    39.8929  43.9933  44.0193  44.0455  47.7932  47.8217  47.8506  51.6564
    66.9877  66.9911

     the Fermi energy is    52.6736 ev

!    total energy              =    -141.23845281 Ry
     Harris-Foulkes estimate   =    -141.23845367 Ry
     estimated scf accuracy    <       0.00000045 Ry

     total all-electron energy =     -1925.809575 Ry

     The total energy is the sum of the following terms:

     one-electron contribution =      58.67918104 Ry
     hartree contribution      =       0.21169239 Ry
     xc contribution           =     -17.28513448 Ry
     ewald contribution        =     -40.85514766 Ry
     one-center paw contrib.   =    -141.98841106 Ry
     smearing contrib. (-TS)   =      -0.00063305 Ry

     convergence has been achieved in  11 iterations

     Forces acting on atoms (cartesian axes, Ry/au):

     atom    1 type  1   force =     0.00202033   -0.00046230    0.01648235
     atom    2 type  1   force =    -0.00332222    0.00378445    0.01642323
     atom    3 type  1   force =    -0.00050233   -0.00061998   -0.01738591
     atom    4 type  1   force =     0.00180422   -0.00270217   -0.01551968

     Total force =     0.033547     Total SCF correction =     0.000019


     Computing stress (Cartesian axis) and pressure

          total   stress  (Ry/bohr**3)                   (kbar)     P=59624.53
   0.40532500   0.00000126   0.00000091      59625.36      0.18      0.13
   0.00000126   0.40531337  -0.00000099          0.18  59623.64     -0.15
   0.00000091  -0.00000099   0.40531981          0.13     -0.15  59624.59


     Writing output data file fe_scf_fcc_2.save/

     init_run     :      0.99s CPU      1.06s WALL (       1 calls)
     electrons    :      4.15s CPU      4.39s WALL (       1 calls)
     forces       :      0.02s CPU      0.03s WALL (       1 calls)
     stress       :      0.08s CPU      0.08s WALL (       1 calls)

     Called by init_run:
     wfcinit      :      0.08s CPU      0.11s WALL (       1 calls)
     potinit      :      0.33s CPU      0.35s WALL (       1 calls)
     hinit0       :      0.57s CPU      0.58s WALL (       1 calls)

     Called by electrons:
     c_bands      :      1.19s CPU      1.24s WALL (      11 calls)
     sum_band     :      0.18s CPU      0.20s WALL (      11 calls)
     v_of_rho     :      0.03s CPU      0.03s WALL (      12 calls)
     newd         :      0.03s CPU      0.04s WALL (      12 calls)
     PAW_pot      :      3.03s CPU      3.21s WALL (      12 calls)
     mix_rho      :      0.02s CPU      0.01s WALL (      11 calls)

     Called by c_bands:
     init_us_2    :      0.06s CPU      0.07s WALL (     800 calls)
     cegterg      :      1.12s CPU      1.14s WALL (     352 calls)

     Called by sum_band:
     sum_band:bec :      0.00s CPU      0.00s WALL (     352 calls)
     addusdens    :      0.01s CPU      0.02s WALL (      11 calls)

     Called by *egterg:
     h_psi        :      0.67s CPU      0.73s WALL (    1103 calls)
     s_psi        :      0.05s CPU      0.07s WALL (    1103 calls)
     g_psi        :      0.01s CPU      0.01s WALL (     719 calls)
     cdiaghg      :      0.22s CPU      0.22s WALL (    1071 calls)

     Called by h_psi:
     h_psi:pot    :      0.67s CPU      0.73s WALL (    1103 calls)
     h_psi:calbec :      0.04s CPU      0.07s WALL (    1103 calls)
     vloc_psi     :      0.53s CPU      0.58s WALL (    1103 calls)
     add_vuspsi   :      0.09s CPU      0.07s WALL (    1103 calls)

     General routines
     calbec       :      0.07s CPU      0.10s WALL (    1615 calls)
     fft          :      0.00s CPU      0.02s WALL (     158 calls)
     ffts         :      0.00s CPU      0.00s WALL (      11 calls)
     fftw         :      0.55s CPU      0.56s WALL (   22102 calls)

     Parallel routines

     PWSCF        :     6.80s CPU         7.22s WALL


   This run was terminated on:  18: 4:46  19Oct2019            

=------------------------------------------------------------------------------=
   JOB DONE.
=------------------------------------------------------------------------------=
