
     Program PWSCF v.6.3 starts on 22Oct2019 at 19: 7:34 

     This program is part of the open-source Quantum ESPRESSO suite
     for quantum simulation of materials; please cite
         "P. Giannozzi et al., J. Phys.:Condens. Matter 21 395502 (2009);
         "P. Giannozzi et al., J. Phys.:Condens. Matter 29 465901 (2017);
          URL http://www.quantum-espresso.org", 
     in publications or presentations arising from this work. More details at
     http://www.quantum-espresso.org/quote

     Parallel version (MPI & OpenMP), running on      20 processor cores
     Number of MPI processes:                20
     Threads/MPI process:                     1

     MPI processes distributed on     1 nodes
     R & G space division:  proc/nbgrp/npool/nimage =      20
     Reading input from /rds/homes/b/bxp912/jobs/20191022_test/wd/runpwscf/file_10164.in
Warning: card &IONS ignored
Warning: card ION_DYNAMICS = 'BFGS', ignored
Warning: card / ignored
Warning: card &CELL ignored
Warning: card CELL_DYNAMICS = 'BFGS', ignored
Warning: card CELL_FACTOR = 2.0, ignored
Warning: card PRESS = 0.0, ignored
Warning: card / ignored

     Current dimensions of program PWSCF are:
     Max number of different atomic species (ntypx) = 10
     Max number of k-points (npk) =  40000
     Max angular momentum in pseudopotentials (lmaxx) =  3
     Message from routine read_upf::
     Pseudo file /rds/homes/b/bxp912/pp/Al.pbe-nl-kjpaw_psl.1.0.0.UPF has been successfully fixed on the fly.
To avoid this message in the future you can permanently fix 
 your pseudo files following instructions given in: 
https://gitlab.com/QEF/q-e/blob/master/upftools/how_to_fix_upf.md
               file Al.pbe-nl-kjpaw_psl.1.0.0.UPF: wavefunction(s)  3S 3P renormalized

     Subspace diagonalization in iterative solution of the eigenvalue problem:
     a serial algorithm will be used

 
     Parallelization info
     --------------------
     sticks:   dense  smooth     PW     G-vecs:    dense   smooth      PW
     Min          14      14      7                  184      184      64
     Max          15      15      9                  187      187      67
     Sum         293     293    145                 3695     3695    1309
 


     bravais-lattice index     =            0
     lattice parameter (alat)  =       4.0400  a.u.
     unit-cell volume          =      65.9393 (a.u.)^3
     number of atoms/cell      =            4
     number of atomic types    =            1
     number of electrons       =        12.00
     number of Kohn-Sham states=           10
     kinetic-energy cutoff     =      90.0000  Ry
     charge density cutoff     =     220.0000  Ry
     convergence threshold     =      1.0E-06
     mixing beta               =       0.1000
     number of iterations used =           10  TF        mixing
     Exchange-correlation      = SLA PW PBX PBC ( 1  4  3  4 0 0)

     celldm(1)=   4.040000  celldm(2)=   0.000000  celldm(3)=   0.000000
     celldm(4)=   0.000000  celldm(5)=   0.000000  celldm(6)=   0.000000

     crystal axes: (cart. coord. in units of alat)
               a(1) = (   1.000000   0.000000   0.000000 )  
               a(2) = (   0.000000   1.000000   0.000000 )  
               a(3) = (   0.000000   0.000000   1.000000 )  

     reciprocal axes: (cart. coord. in units 2 pi/alat)
               b(1) = (  1.000000  0.000000  0.000000 )  
               b(2) = (  0.000000  1.000000  0.000000 )  
               b(3) = (  0.000000  0.000000  1.000000 )  


     PseudoPot. # 1 for Al read from file:
     /rds/homes/b/bxp912/pp/Al.pbe-nl-kjpaw_psl.1.0.0.UPF
     MD5 check sum: 339dbea23cf3ab9a065ad45c0f9085d7
     Pseudo is Projector augmented-wave + core cor, Zval =  3.0
     Generated using "atomic" code by A. Dal Corso v.5.1
     Shape of augmentation charge: PSQ
     Using radial grid of 1135 points,  4 beta functions with: 
                l(1) =   0
                l(2) =   0
                l(3) =   1
                l(4) =   1
     Q(r) pseudized with 0 coefficients 


     atomic species   valence    mass     pseudopotential
        Al             3.00    26.98200     Al( 1.00)

     No symmetry found



   Cartesian axes

     site n.     atom                  positions (alat units)
         1           Al  tau(   1) = (  -0.0001235   0.0000359   0.0002572  )
         2           Al  tau(   2) = (   0.5003009   0.4992819   0.0002658  )
         3           Al  tau(   3) = (   0.4996490   0.0001153   0.5011170  )
         4           Al  tau(   4) = (  -0.0000756   0.5008267   0.5006943  )

     number of k points=    32  Marzari-Vanderbilt smearing, width (Ry)=  0.0200
                       cart. coord. in units 2pi/alat
        k(    1) = (   0.1250000   0.1250000   0.1250000), wk =   0.0625000
        k(    2) = (   0.1250000   0.1250000   0.3750000), wk =   0.0625000
        k(    3) = (   0.1250000   0.3750000   0.3750000), wk =   0.0625000
        k(    4) = (   0.3750000   0.3750000   0.3750000), wk =   0.0625000
        k(    5) = (  -0.1250000  -0.1250000   0.1250000), wk =   0.0625000
        k(    6) = (  -0.1250000   0.1250000  -0.1250000), wk =   0.0625000
        k(    7) = (   0.1250000  -0.1250000  -0.1250000), wk =   0.0625000
        k(    8) = (  -0.1250000  -0.1250000   0.3750000), wk =   0.0625000
        k(    9) = (  -0.1250000   0.1250000  -0.3750000), wk =   0.0625000
        k(   10) = (   0.1250000  -0.1250000  -0.3750000), wk =   0.0625000
        k(   11) = (   0.3750000  -0.1250000   0.1250000), wk =   0.0625000
        k(   12) = (  -0.3750000  -0.1250000  -0.1250000), wk =   0.0625000
        k(   13) = (   0.3750000   0.1250000  -0.1250000), wk =   0.0625000
        k(   14) = (  -0.3750000   0.1250000   0.1250000), wk =   0.0625000
        k(   15) = (  -0.1250000   0.3750000   0.1250000), wk =   0.0625000
        k(   16) = (  -0.1250000  -0.3750000  -0.1250000), wk =   0.0625000
        k(   17) = (   0.1250000   0.3750000  -0.1250000), wk =   0.0625000
        k(   18) = (   0.1250000  -0.3750000   0.1250000), wk =   0.0625000
        k(   19) = (  -0.1250000  -0.3750000   0.3750000), wk =   0.0625000
        k(   20) = (  -0.1250000   0.3750000  -0.3750000), wk =   0.0625000
        k(   21) = (   0.1250000  -0.3750000  -0.3750000), wk =   0.0625000
        k(   22) = (   0.3750000   0.1250000  -0.3750000), wk =   0.0625000
        k(   23) = (  -0.3750000  -0.1250000  -0.3750000), wk =   0.0625000
        k(   24) = (   0.3750000  -0.1250000   0.3750000), wk =   0.0625000
        k(   25) = (  -0.3750000   0.1250000   0.3750000), wk =   0.0625000
        k(   26) = (   0.3750000  -0.3750000   0.1250000), wk =   0.0625000
        k(   27) = (  -0.3750000  -0.3750000  -0.1250000), wk =   0.0625000
        k(   28) = (   0.3750000   0.3750000  -0.1250000), wk =   0.0625000
        k(   29) = (  -0.3750000   0.3750000   0.1250000), wk =   0.0625000
        k(   30) = (  -0.3750000  -0.3750000   0.3750000), wk =   0.0625000
        k(   31) = (  -0.3750000   0.3750000  -0.3750000), wk =   0.0625000
        k(   32) = (   0.3750000  -0.3750000  -0.3750000), wk =   0.0625000

     Dense  grid:     3695 G-vectors     FFT dimensions: (  20,  20,  20)

     Estimated max dynamical RAM per process >       0.76 MB

     Estimated total dynamical RAM >      15.19 MB

     Initial potential from superposition of free atoms

     starting charge   11.99084, renormalised to   12.00000
     Starting wfcs are   16 randomized atomic wfcs
     Checking if some PAW data can be deallocated... 

     total cpu time spent up to now is        0.7 secs

     Self-consistent Calculation

     iteration #  1     ecut=    90.00 Ry     beta= 0.10
     Davidson diagonalization with overlap
     ethr =  1.00E-02,  avg # of iterations =  4.9

     total cpu time spent up to now is        0.9 secs

     total energy              =    -141.65276068 Ry
     Harris-Foulkes estimate   =    -141.80703766 Ry
     estimated scf accuracy    <       0.18121447 Ry

     iteration #  2     ecut=    90.00 Ry     beta= 0.10
     Davidson diagonalization with overlap
     ethr =  1.51E-03,  avg # of iterations =  1.0

     total cpu time spent up to now is        1.0 secs

     total energy              =    -141.16254525 Ry
     Harris-Foulkes estimate   =    -141.65533662 Ry
     estimated scf accuracy    <       0.15199643 Ry

     iteration #  3     ecut=    90.00 Ry     beta= 0.10
     Davidson diagonalization with overlap
     ethr =  1.27E-03,  avg # of iterations =  2.0

     total cpu time spent up to now is        1.1 secs

     total energy              =    -141.24400436 Ry
     Harris-Foulkes estimate   =    -141.25534690 Ry
     estimated scf accuracy    <       0.01558154 Ry

     iteration #  4     ecut=    90.00 Ry     beta= 0.10
     Davidson diagonalization with overlap
     ethr =  1.30E-04,  avg # of iterations =  1.0

     total cpu time spent up to now is        1.2 secs

     total energy              =    -141.24157015 Ry
     Harris-Foulkes estimate   =    -141.24441113 Ry
     estimated scf accuracy    <       0.01252070 Ry

     iteration #  5     ecut=    90.00 Ry     beta= 0.10
     Davidson diagonalization with overlap
     ethr =  1.04E-04,  avg # of iterations =  1.0

     total cpu time spent up to now is        1.3 secs

     total energy              =    -141.24331427 Ry
     Harris-Foulkes estimate   =    -141.24262644 Ry
     estimated scf accuracy    <       0.00082879 Ry

     iteration #  6     ecut=    90.00 Ry     beta= 0.10
     Davidson diagonalization with overlap
     ethr =  6.91E-06,  avg # of iterations =  2.4

     total cpu time spent up to now is        1.5 secs

     total energy              =    -141.24358694 Ry
     Harris-Foulkes estimate   =    -141.24357342 Ry
     estimated scf accuracy    <       0.00013093 Ry

     iteration #  7     ecut=    90.00 Ry     beta= 0.10
     Davidson diagonalization with overlap
     ethr =  1.09E-06,  avg # of iterations =  1.2

     total cpu time spent up to now is        1.6 secs

     total energy              =    -141.24277639 Ry
     Harris-Foulkes estimate   =    -141.24358916 Ry
     estimated scf accuracy    <       0.00011308 Ry

     iteration #  8     ecut=    90.00 Ry     beta= 0.10
     Davidson diagonalization with overlap
     ethr =  9.42E-07,  avg # of iterations =  2.1

     total cpu time spent up to now is        1.7 secs

     total energy              =    -141.24294225 Ry
     Harris-Foulkes estimate   =    -141.24284501 Ry
     estimated scf accuracy    <       0.00006103 Ry

     iteration #  9     ecut=    90.00 Ry     beta= 0.10
     Davidson diagonalization with overlap
     ethr =  5.09E-07,  avg # of iterations =  2.0

     total cpu time spent up to now is        1.8 secs

     total energy              =    -141.24280518 Ry
     Harris-Foulkes estimate   =    -141.24294902 Ry
     estimated scf accuracy    <       0.00000934 Ry

     iteration # 10     ecut=    90.00 Ry     beta= 0.10
     Davidson diagonalization with overlap
     ethr =  7.79E-08,  avg # of iterations =  3.0

     total cpu time spent up to now is        2.0 secs

     total energy              =    -141.24281715 Ry
     Harris-Foulkes estimate   =    -141.24281742 Ry
     estimated scf accuracy    <       0.00000300 Ry

     iteration # 11     ecut=    90.00 Ry     beta= 0.10
     Davidson diagonalization with overlap
     ethr =  2.50E-08,  avg # of iterations =  1.0

     total cpu time spent up to now is        2.1 secs

     total energy              =    -141.24281573 Ry
     Harris-Foulkes estimate   =    -141.24281720 Ry
     estimated scf accuracy    <       0.00000102 Ry

     iteration # 12     ecut=    90.00 Ry     beta= 0.10
     Davidson diagonalization with overlap
     ethr =  8.50E-09,  avg # of iterations =  2.0

     total cpu time spent up to now is        2.2 secs

     End of self-consistent calculation

          k = 0.1250 0.1250 0.1250 (   952 PWs)   bands (ev):

    30.9157  41.4376  41.4567  41.4754  52.4293  52.4496  52.4697  54.9332
    54.9431  54.9531

          k = 0.1250 0.1250 0.3750 (   950 PWs)   bands (ev):

    34.4086  39.0149  43.9432  43.9620  51.8126  51.8298  54.8787  54.8874
    55.6925  61.5171

          k = 0.1250 0.3750 0.3750 (   953 PWs)   bands (ev):

    37.4239  41.6586  41.6956  44.5506  50.4948  52.9073  52.9565  57.0471
    57.5689  60.7339

          k = 0.3750 0.3750 0.3750 (   958 PWs)   bands (ev):

    39.8894  43.9780  44.0160  44.0538  47.7760  47.8176  47.8591  51.6514
    66.9725  66.9766

          k =-0.1250-0.1250 0.1250 (   952 PWs)   bands (ev):

    30.9157  41.4416  41.4566  41.4714  52.4335  52.4495  52.4654  54.9353
    54.9431  54.9510

          k =-0.1250 0.1250-0.1250 (   952 PWs)   bands (ev):

    30.9157  41.4454  41.4566  41.4675  52.4376  52.4495  52.4612  54.9373
    54.9431  54.9490

          k = 0.1250-0.1250-0.1250 (   952 PWs)   bands (ev):

    30.9157  41.4434  41.4566  41.4696  52.4355  52.4496  52.4635  54.9362
    54.9431  54.9500

          k =-0.1250-0.1250 0.3750 (   950 PWs)   bands (ev):

    34.4086  39.0149  43.9432  43.9620  51.8126  51.8299  54.8788  54.8875
    55.6922  61.5172

          k =-0.1250 0.1250-0.3750 (   950 PWs)   bands (ev):

    34.4086  39.0149  43.9483  43.9569  51.8172  51.8251  54.8811  54.8851
    55.6923  61.5173

          k = 0.1250-0.1250-0.3750 (   950 PWs)   bands (ev):

    34.4086  39.0149  43.9483  43.9569  51.8172  51.8251  54.8811  54.8851
    55.6925  61.5169

          k = 0.3750-0.1250 0.1250 (   950 PWs)   bands (ev):

    34.4087  39.0148  43.9483  43.9570  51.8170  51.8250  54.8813  54.8853
    55.6925  61.5173

          k =-0.3750-0.1250-0.1250 (   950 PWs)   bands (ev):

    34.4087  39.0147  43.9446  43.9607  51.8140  51.8286  54.8791  54.8864
    55.6931  61.5173

          k = 0.3750 0.1250-0.1250 (   950 PWs)   bands (ev):

    34.4087  39.0147  43.9483  43.9570  51.8170  51.8250  54.8813  54.8853
    55.6925  61.5173

          k =-0.3750 0.1250 0.1250 (   950 PWs)   bands (ev):

    34.4087  39.0148  43.9446  43.9606  51.8140  51.8287  54.8791  54.8865
    55.6927  61.5173

          k =-0.1250 0.3750 0.1250 (   950 PWs)   bands (ev):

    34.4087  39.0147  43.9516  43.9540  51.8201  51.8223  54.8824  54.8836
    55.6924  61.5172

          k =-0.1250-0.3750-0.1250 (   950 PWs)   bands (ev):

    34.4087  39.0147  43.9481  43.9575  51.8168  51.8255  54.8809  54.8853
    55.6925  61.5173

          k = 0.1250 0.3750-0.1250 (   950 PWs)   bands (ev):

    34.4087  39.0147  43.9516  43.9540  51.8201  51.8223  54.8823  54.8835
    55.6928  61.5171

          k = 0.1250-0.3750 0.1250 (   950 PWs)   bands (ev):

    34.4087  39.0147  43.9481  43.9575  51.8169  51.8255  54.8809  54.8852
    55.6924  61.5172

          k =-0.1250-0.3750 0.3750 (   953 PWs)   bands (ev):

    37.4239  41.6671  41.6872  44.5504  50.4950  52.9184  52.9452  57.0464
    57.5698  60.7364

          k =-0.1250 0.3750-0.3750 (   953 PWs)   bands (ev):

    37.4239  41.6671  41.6872  44.5504  50.4950  52.9184  52.9452  57.0461
    57.5703  60.7355

          k = 0.1250-0.3750-0.3750 (   953 PWs)   bands (ev):

    37.4239  41.6586  41.6956  44.5506  50.4949  52.9073  52.9565  57.0467
    57.5691  60.7357

          k = 0.3750 0.1250-0.3750 (   953 PWs)   bands (ev):

    37.4239  41.6743  41.6798  44.5504  50.4948  52.9283  52.9356  57.0471
    57.5691  60.7366

          k =-0.3750-0.1250-0.3750 (   953 PWs)   bands (ev):

    37.4239  41.6662  41.6879  44.5503  50.4951  52.9176  52.9464  57.0473
    57.5687  60.7354

          k = 0.3750-0.1250 0.3750 (   953 PWs)   bands (ev):

    37.4239  41.6662  41.6880  44.5504  50.4949  52.9174  52.9463  57.0475
    57.5688  60.7343

          k =-0.3750 0.1250 0.3750 (   953 PWs)   bands (ev):

    37.4239  41.6743  41.6798  44.5504  50.4950  52.9283  52.9357  57.0468
    57.5691  60.7368

          k = 0.3750-0.3750 0.1250 (   953 PWs)   bands (ev):

    37.4239  41.6672  41.6870  44.5505  50.4947  52.9186  52.9450  57.0473
    57.5689  60.7365

          k =-0.3750-0.3750-0.1250 (   953 PWs)   bands (ev):

    37.4240  41.6554  41.6988  44.5504  50.4950  52.9030  52.9607  57.0453
    57.5708  60.7364

          k = 0.3750 0.3750-0.1250 (   953 PWs)   bands (ev):

    37.4239  41.6554  41.6988  44.5504  50.4949  52.9029  52.9606  57.0474
    57.5688  60.7315

          k =-0.3750 0.3750 0.1250 (   953 PWs)   bands (ev):

    37.4239  41.6671  41.6870  44.5505  50.4950  52.9187  52.9451  57.0427
    57.5734  60.7364

          k =-0.3750-0.3750 0.3750 (   958 PWs)   bands (ev):

    39.8893  43.9859  44.0160  44.0458  47.7848  47.8175  47.8504  51.6515
    66.9747  66.9775

          k =-0.3750 0.3750-0.3750 (   958 PWs)   bands (ev):

    39.8893  43.9937  44.0160  44.0380  47.7933  47.8175  47.8418  51.6516
    66.9738  66.9766

          k = 0.3750-0.3750-0.3750 (   958 PWs)   bands (ev):

    39.8893  43.9896  44.0159  44.0421  47.7888  47.8176  47.8464  51.6514
    66.9750  66.9776

     the Fermi energy is    52.6614 ev

!    total energy              =    -141.24281578 Ry
     Harris-Foulkes estimate   =    -141.24281594 Ry
     estimated scf accuracy    <       0.00000051 Ry

     total all-electron energy =     -1925.813944 Ry

     The total energy is the sum of the following terms:

     one-electron contribution =      58.67244352 Ry
     hartree contribution      =       0.21192357 Ry
     xc contribution           =     -17.28510649 Ry
     ewald contribution        =     -40.85514765 Ry
     one-center paw contrib.   =    -141.98631040 Ry
     smearing contrib. (-TS)   =      -0.00061834 Ry

     convergence has been achieved in  12 iterations

     Forces acting on atoms (cartesian axes, Ry/au):

     atom    1 type  1   force =     0.00201630   -0.00038948    0.01643469
     atom    2 type  1   force =    -0.00324813    0.00371171    0.01640319
     atom    3 type  1   force =    -0.00056042   -0.00069234   -0.01729586
     atom    4 type  1   force =     0.00179224   -0.00262990   -0.01554201

     Total force =     0.033456     Total SCF correction =     0.000005


     Computing stress (Cartesian axis) and pressure

          total   stress  (Ry/bohr**3)                   (kbar)     P=59672.75
   0.40565257   0.00000120   0.00000079      59673.54      0.18      0.12
   0.00000120   0.40564134  -0.00000110          0.18  59671.89     -0.16
   0.00000079  -0.00000110   0.40564754          0.12     -0.16  59672.80


     Writing output data file fe_scf_fcc_2.save/
 
     init_run     :      0.11s CPU      0.15s WALL (       1 calls)
     electrons    :      1.34s CPU      1.48s WALL (       1 calls)
     forces       :      0.01s CPU      0.01s WALL (       1 calls)
     stress       :      0.01s CPU      0.02s WALL (       1 calls)

     Called by init_run:
     wfcinit      :      0.06s CPU      0.06s WALL (       1 calls)
     potinit      :      0.01s CPU      0.02s WALL (       1 calls)
     hinit0       :      0.03s CPU      0.06s WALL (       1 calls)

     Called by electrons:
     c_bands      :      1.01s CPU      1.12s WALL (      12 calls)
     sum_band     :      0.17s CPU      0.19s WALL (      12 calls)
     v_of_rho     :      0.01s CPU      0.01s WALL (      13 calls)
     newd         :      0.00s CPU      0.00s WALL (      13 calls)
     PAW_pot      :      0.15s CPU      0.17s WALL (      13 calls)
     mix_rho      :      0.01s CPU      0.01s WALL (      12 calls)

     Called by c_bands:
     init_us_2    :      0.01s CPU      0.01s WALL (     864 calls)
     cegterg      :      0.97s CPU      1.07s WALL (     384 calls)

     Called by sum_band:
     sum_band:bec :      0.00s CPU      0.00s WALL (     384 calls)
     addusdens    :      0.00s CPU      0.00s WALL (      12 calls)

     Called by *egterg:
     h_psi        :      0.71s CPU      0.78s WALL (    1171 calls)
     s_psi        :      0.01s CPU      0.01s WALL (    1171 calls)
     g_psi        :      0.00s CPU      0.00s WALL (     755 calls)
     cdiaghg      :      0.18s CPU      0.20s WALL (    1139 calls)

     Called by h_psi:
     h_psi:pot    :      0.71s CPU      0.78s WALL (    1171 calls)
     h_psi:calbec :      0.06s CPU      0.07s WALL (    1171 calls)
     vloc_psi     :      0.63s CPU      0.69s WALL (    1171 calls)
     add_vuspsi   :      0.01s CPU      0.01s WALL (    1171 calls)

     General routines
     calbec       :      0.09s CPU      0.10s WALL (    1715 calls)
     fft          :      0.03s CPU      0.06s WALL (     169 calls)
     ffts         :      0.00s CPU      0.00s WALL (      12 calls)
     fftw         :      0.72s CPU      0.79s WALL (   23808 calls)
 
     Parallel routines
     fft_scatt_xy :      0.04s CPU      0.05s WALL (   23989 calls)
     fft_scatt_yz :      0.58s CPU      0.67s WALL (   23989 calls)
 
     PWSCF        :     2.02s CPU         2.42s WALL

 
   This run was terminated on:  19: 7:36  22Oct2019            

=------------------------------------------------------------------------------=
   JOB DONE.
=------------------------------------------------------------------------------=
