
     Program PWSCF v.6.3 starts on 22Oct2019 at 19: 2:19 

     This program is part of the open-source Quantum ESPRESSO suite
     for quantum simulation of materials; please cite
         "P. Giannozzi et al., J. Phys.:Condens. Matter 21 395502 (2009);
         "P. Giannozzi et al., J. Phys.:Condens. Matter 29 465901 (2017);
          URL http://www.quantum-espresso.org", 
     in publications or presentations arising from this work. More details at
     http://www.quantum-espresso.org/quote

     Parallel version (MPI & OpenMP), running on      20 processor cores
     Number of MPI processes:                20
     Threads/MPI process:                     1

     MPI processes distributed on     1 nodes
     R & G space division:  proc/nbgrp/npool/nimage =      20
     Reading input from /rds/homes/b/bxp912/jobs/20191022_test/wd/runpwscf/file_10045.in
Warning: card &IONS ignored
Warning: card ION_DYNAMICS = 'BFGS', ignored
Warning: card / ignored
Warning: card &CELL ignored
Warning: card CELL_DYNAMICS = 'BFGS', ignored
Warning: card CELL_FACTOR = 2.0, ignored
Warning: card PRESS = 0.0, ignored
Warning: card / ignored

     Current dimensions of program PWSCF are:
     Max number of different atomic species (ntypx) = 10
     Max number of k-points (npk) =  40000
     Max angular momentum in pseudopotentials (lmaxx) =  3
     Message from routine read_upf::
     Pseudo file /rds/homes/b/bxp912/pp/Al.pbe-nl-kjpaw_psl.1.0.0.UPF has been successfully fixed on the fly.
To avoid this message in the future you can permanently fix 
 your pseudo files following instructions given in: 
https://gitlab.com/QEF/q-e/blob/master/upftools/how_to_fix_upf.md
               file Al.pbe-nl-kjpaw_psl.1.0.0.UPF: wavefunction(s)  3S 3P renormalized

     Subspace diagonalization in iterative solution of the eigenvalue problem:
     a serial algorithm will be used

 
     Parallelization info
     --------------------
     sticks:   dense  smooth     PW     G-vecs:    dense   smooth      PW
     Min          13      13      6                  155      155      50
     Max          14      14      7                  157      157      53
     Sum         261     261    121                 3119     3119    1021
 


     bravais-lattice index     =            0
     lattice parameter (alat)  =       4.0400  a.u.
     unit-cell volume          =      65.9393 (a.u.)^3
     number of atoms/cell      =            4
     number of atomic types    =            1
     number of electrons       =        12.00
     number of Kohn-Sham states=           10
     kinetic-energy cutoff     =      75.0000  Ry
     charge density cutoff     =     200.0000  Ry
     convergence threshold     =      1.0E-06
     mixing beta               =       0.1000
     number of iterations used =           10  TF        mixing
     Exchange-correlation      = SLA PW PBX PBC ( 1  4  3  4 0 0)

     celldm(1)=   4.040000  celldm(2)=   0.000000  celldm(3)=   0.000000
     celldm(4)=   0.000000  celldm(5)=   0.000000  celldm(6)=   0.000000

     crystal axes: (cart. coord. in units of alat)
               a(1) = (   1.000000   0.000000   0.000000 )  
               a(2) = (   0.000000   1.000000   0.000000 )  
               a(3) = (   0.000000   0.000000   1.000000 )  

     reciprocal axes: (cart. coord. in units 2 pi/alat)
               b(1) = (  1.000000  0.000000  0.000000 )  
               b(2) = (  0.000000  1.000000  0.000000 )  
               b(3) = (  0.000000  0.000000  1.000000 )  


     PseudoPot. # 1 for Al read from file:
     /rds/homes/b/bxp912/pp/Al.pbe-nl-kjpaw_psl.1.0.0.UPF
     MD5 check sum: 339dbea23cf3ab9a065ad45c0f9085d7
     Pseudo is Projector augmented-wave + core cor, Zval =  3.0
     Generated using "atomic" code by A. Dal Corso v.5.1
     Shape of augmentation charge: PSQ
     Using radial grid of 1135 points,  4 beta functions with: 
                l(1) =   0
                l(2) =   0
                l(3) =   1
                l(4) =   1
     Q(r) pseudized with 0 coefficients 


     atomic species   valence    mass     pseudopotential
        Al             3.00    26.98200     Al( 1.00)

     No symmetry found



   Cartesian axes

     site n.     atom                  positions (alat units)
         1           Al  tau(   1) = (  -0.0001235   0.0000359   0.0002572  )
         2           Al  tau(   2) = (   0.5003009   0.4992819   0.0002658  )
         3           Al  tau(   3) = (   0.4996490   0.0001153   0.5011170  )
         4           Al  tau(   4) = (  -0.0000756   0.5008267   0.5006943  )

     number of k points=    32  Marzari-Vanderbilt smearing, width (Ry)=  0.0200
                       cart. coord. in units 2pi/alat
        k(    1) = (   0.1250000   0.1250000   0.1250000), wk =   0.0625000
        k(    2) = (   0.1250000   0.1250000   0.3750000), wk =   0.0625000
        k(    3) = (   0.1250000   0.3750000   0.3750000), wk =   0.0625000
        k(    4) = (   0.3750000   0.3750000   0.3750000), wk =   0.0625000
        k(    5) = (  -0.1250000  -0.1250000   0.1250000), wk =   0.0625000
        k(    6) = (  -0.1250000   0.1250000  -0.1250000), wk =   0.0625000
        k(    7) = (   0.1250000  -0.1250000  -0.1250000), wk =   0.0625000
        k(    8) = (  -0.1250000  -0.1250000   0.3750000), wk =   0.0625000
        k(    9) = (  -0.1250000   0.1250000  -0.3750000), wk =   0.0625000
        k(   10) = (   0.1250000  -0.1250000  -0.3750000), wk =   0.0625000
        k(   11) = (   0.3750000  -0.1250000   0.1250000), wk =   0.0625000
        k(   12) = (  -0.3750000  -0.1250000  -0.1250000), wk =   0.0625000
        k(   13) = (   0.3750000   0.1250000  -0.1250000), wk =   0.0625000
        k(   14) = (  -0.3750000   0.1250000   0.1250000), wk =   0.0625000
        k(   15) = (  -0.1250000   0.3750000   0.1250000), wk =   0.0625000
        k(   16) = (  -0.1250000  -0.3750000  -0.1250000), wk =   0.0625000
        k(   17) = (   0.1250000   0.3750000  -0.1250000), wk =   0.0625000
        k(   18) = (   0.1250000  -0.3750000   0.1250000), wk =   0.0625000
        k(   19) = (  -0.1250000  -0.3750000   0.3750000), wk =   0.0625000
        k(   20) = (  -0.1250000   0.3750000  -0.3750000), wk =   0.0625000
        k(   21) = (   0.1250000  -0.3750000  -0.3750000), wk =   0.0625000
        k(   22) = (   0.3750000   0.1250000  -0.3750000), wk =   0.0625000
        k(   23) = (  -0.3750000  -0.1250000  -0.3750000), wk =   0.0625000
        k(   24) = (   0.3750000  -0.1250000   0.3750000), wk =   0.0625000
        k(   25) = (  -0.3750000   0.1250000   0.3750000), wk =   0.0625000
        k(   26) = (   0.3750000  -0.3750000   0.1250000), wk =   0.0625000
        k(   27) = (  -0.3750000  -0.3750000  -0.1250000), wk =   0.0625000
        k(   28) = (   0.3750000   0.3750000  -0.1250000), wk =   0.0625000
        k(   29) = (  -0.3750000   0.3750000   0.1250000), wk =   0.0625000
        k(   30) = (  -0.3750000  -0.3750000   0.3750000), wk =   0.0625000
        k(   31) = (  -0.3750000   0.3750000  -0.3750000), wk =   0.0625000
        k(   32) = (   0.3750000  -0.3750000  -0.3750000), wk =   0.0625000

     Dense  grid:     3119 G-vectors     FFT dimensions: (  20,  20,  20)

     Estimated max dynamical RAM per process >       0.65 MB

     Estimated total dynamical RAM >      13.08 MB

     Initial potential from superposition of free atoms

     starting charge   11.99084, renormalised to   12.00000
     Starting wfcs are   16 randomized atomic wfcs
     Checking if some PAW data can be deallocated... 

     total cpu time spent up to now is        0.7 secs

     Self-consistent Calculation

     iteration #  1     ecut=    75.00 Ry     beta= 0.10
     Davidson diagonalization with overlap
     ethr =  1.00E-02,  avg # of iterations =  4.9

     total cpu time spent up to now is        0.9 secs

     total energy              =    -141.65271781 Ry
     Harris-Foulkes estimate   =    -141.80699125 Ry
     estimated scf accuracy    <       0.18108451 Ry

     iteration #  2     ecut=    75.00 Ry     beta= 0.10
     Davidson diagonalization with overlap
     ethr =  1.51E-03,  avg # of iterations =  1.0

     total cpu time spent up to now is        1.0 secs

     total energy              =    -141.16265040 Ry
     Harris-Foulkes estimate   =    -141.65529552 Ry
     estimated scf accuracy    <       0.15203332 Ry

     iteration #  3     ecut=    75.00 Ry     beta= 0.10
     Davidson diagonalization with overlap
     ethr =  1.27E-03,  avg # of iterations =  2.0

     total cpu time spent up to now is        1.1 secs

     total energy              =    -141.24369502 Ry
     Harris-Foulkes estimate   =    -141.25601836 Ry
     estimated scf accuracy    <       0.01566608 Ry

     iteration #  4     ecut=    75.00 Ry     beta= 0.10
     Davidson diagonalization with overlap
     ethr =  1.31E-04,  avg # of iterations =  1.0

     total cpu time spent up to now is        1.2 secs

     total energy              =    -141.24148539 Ry
     Harris-Foulkes estimate   =    -141.24413122 Ry
     estimated scf accuracy    <       0.01247689 Ry

     iteration #  5     ecut=    75.00 Ry     beta= 0.10
     Davidson diagonalization with overlap
     ethr =  1.04E-04,  avg # of iterations =  1.0

     total cpu time spent up to now is        1.3 secs

     total energy              =    -141.24345413 Ry
     Harris-Foulkes estimate   =    -141.24256111 Ry
     estimated scf accuracy    <       0.00074833 Ry

     iteration #  6     ecut=    75.00 Ry     beta= 0.10
     Davidson diagonalization with overlap
     ethr =  6.24E-06,  avg # of iterations =  2.8

     total cpu time spent up to now is        1.5 secs

     total energy              =    -141.24371380 Ry
     Harris-Foulkes estimate   =    -141.24371727 Ry
     estimated scf accuracy    <       0.00010014 Ry

     iteration #  7     ecut=    75.00 Ry     beta= 0.10
     Davidson diagonalization with overlap
     ethr =  8.35E-07,  avg # of iterations =  1.1

     total cpu time spent up to now is        1.6 secs

     total energy              =    -141.24272924 Ry
     Harris-Foulkes estimate   =    -141.24371506 Ry
     estimated scf accuracy    <       0.00008211 Ry

     iteration #  8     ecut=    75.00 Ry     beta= 0.10
     Davidson diagonalization with overlap
     ethr =  6.84E-07,  avg # of iterations =  2.8

     total cpu time spent up to now is        1.7 secs

     total energy              =    -141.24286148 Ry
     Harris-Foulkes estimate   =    -141.24280453 Ry
     estimated scf accuracy    <       0.00001583 Ry

     iteration #  9     ecut=    75.00 Ry     beta= 0.10
     Davidson diagonalization with overlap
     ethr =  1.32E-07,  avg # of iterations =  2.0

     total cpu time spent up to now is        1.8 secs

     total energy              =    -141.24276361 Ry
     Harris-Foulkes estimate   =    -141.24286355 Ry
     estimated scf accuracy    <       0.00000750 Ry

     iteration # 10     ecut=    75.00 Ry     beta= 0.10
     Davidson diagonalization with overlap
     ethr =  6.25E-08,  avg # of iterations =  3.0

     total cpu time spent up to now is        1.9 secs

     End of self-consistent calculation

          k = 0.1250 0.1250 0.1250 (   724 PWs)   bands (ev):

    30.9159  41.4372  41.4563  41.4750  52.4296  52.4499  52.4700  54.9336
    54.9434  54.9534

          k = 0.1250 0.1250 0.3750 (   733 PWs)   bands (ev):

    34.4088  39.0148  43.9429  43.9617  51.8129  51.8302  54.8791  54.8878
    55.6928  61.5172

          k = 0.1250 0.3750 0.3750 (   723 PWs)   bands (ev):

    37.4240  41.6586  41.6956  44.5505  50.4950  52.9076  52.9566  57.0474
    57.5691  60.7356

          k = 0.3750 0.3750 0.3750 (   717 PWs)   bands (ev):

    39.8895  43.9781  44.0160  44.0538  47.7762  47.8177  47.8592  51.6516
    66.9755  66.9762

          k =-0.1250-0.1250 0.1250 (   724 PWs)   bands (ev):

    30.9159  41.4411  41.4562  41.4710  52.4339  52.4498  52.4658  54.9357
    54.9435  54.9514

          k =-0.1250 0.1250-0.1250 (   724 PWs)   bands (ev):

    30.9159  41.4450  41.4563  41.4671  52.4380  52.4498  52.4616  54.9377
    54.9435  54.9493

          k = 0.1250-0.1250-0.1250 (   724 PWs)   bands (ev):

    30.9159  41.4429  41.4563  41.4692  52.4358  52.4499  52.4638  54.9366
    54.9435  54.9504

          k =-0.1250-0.1250 0.3750 (   733 PWs)   bands (ev):

    34.4088  39.0149  43.9428  43.9617  51.8129  51.8302  54.8791  54.8878
    55.6926  61.5174

          k =-0.1250 0.1250-0.3750 (   733 PWs)   bands (ev):

    34.4087  39.0148  43.9480  43.9566  51.8176  51.8255  54.8815  54.8855
    55.6926  61.5173

          k = 0.1250-0.1250-0.3750 (   733 PWs)   bands (ev):

    34.4088  39.0148  43.9480  43.9566  51.8175  51.8255  54.8814  54.8854
    55.6928  61.5173

          k = 0.3750-0.1250 0.1250 (   733 PWs)   bands (ev):

    34.4088  39.0147  43.9479  43.9567  51.8174  51.8254  54.8816  54.8856
    55.6928  61.5173

          k =-0.3750-0.1250-0.1250 (   733 PWs)   bands (ev):

    34.4088  39.0147  43.9443  43.9603  51.8143  51.8290  54.8794  54.8868
    55.6934  61.5174

          k = 0.3750 0.1250-0.1250 (   733 PWs)   bands (ev):

    34.4088  39.0147  43.9479  43.9567  51.8173  51.8253  54.8816  54.8856
    55.6929  61.5175

          k =-0.3750 0.1250 0.1250 (   733 PWs)   bands (ev):

    34.4088  39.0147  43.9443  43.9603  51.8143  51.8290  54.8795  54.8868
    55.6931  61.5174

          k =-0.1250 0.3750 0.1250 (   733 PWs)   bands (ev):

    34.4088  39.0147  43.9512  43.9537  51.8205  51.8227  54.8828  54.8839
    55.6928  61.5173

          k =-0.1250-0.3750-0.1250 (   733 PWs)   bands (ev):

    34.4088  39.0146  43.9478  43.9572  51.8171  51.8258  54.8813  54.8856
    55.6928  61.5174

          k = 0.1250 0.3750-0.1250 (   733 PWs)   bands (ev):

    34.4088  39.0146  43.9512  43.9537  51.8204  51.8226  54.8826  54.8838
    55.6931  61.5173

          k = 0.1250-0.3750 0.1250 (   733 PWs)   bands (ev):

    34.4088  39.0147  43.9477  43.9571  51.8172  51.8258  54.8813  54.8856
    55.6927  61.5174

          k =-0.1250-0.3750 0.3750 (   723 PWs)   bands (ev):

    37.4240  41.6671  41.6872  44.5503  50.4952  52.9186  52.9454  57.0467
    57.5700  60.7353

          k =-0.1250 0.3750-0.3750 (   723 PWs)   bands (ev):

    37.4240  41.6671  41.6872  44.5503  50.4952  52.9186  52.9454  57.0463
    57.5705  60.7353

          k = 0.1250-0.3750-0.3750 (   723 PWs)   bands (ev):

    37.4240  41.6586  41.6956  44.5505  50.4950  52.9076  52.9566  57.0470
    57.5694  60.7346

          k = 0.3750 0.1250-0.3750 (   723 PWs)   bands (ev):

    37.4240  41.6743  41.6798  44.5504  50.4950  52.9285  52.9359  57.0474
    57.5693  60.7373

          k =-0.3750-0.1250-0.3750 (   723 PWs)   bands (ev):

    37.4240  41.6662  41.6879  44.5502  50.4953  52.9178  52.9466  57.0476
    57.5689  60.7353

          k = 0.3750-0.1250 0.3750 (   723 PWs)   bands (ev):

    37.4240  41.6662  41.6880  44.5503  50.4951  52.9177  52.9465  57.0478
    57.5691  60.7348

          k =-0.3750 0.1250 0.3750 (   723 PWs)   bands (ev):

    37.4240  41.6743  41.6798  44.5503  50.4951  52.9285  52.9360  57.0470
    57.5693  60.7366

          k = 0.3750-0.3750 0.1250 (   723 PWs)   bands (ev):

    37.4240  41.6672  41.6870  44.5504  50.4948  52.9188  52.9453  57.0476
    57.5691  60.7370

          k =-0.3750-0.3750-0.1250 (   723 PWs)   bands (ev):

    37.4241  41.6554  41.6988  44.5503  50.4952  52.9032  52.9609  57.0455
    57.5711  60.7325

          k = 0.3750 0.3750-0.1250 (   723 PWs)   bands (ev):

    37.4241  41.6554  41.6988  44.5503  50.4950  52.9031  52.9609  57.0477
    57.5690  60.7320

          k =-0.3750 0.3750 0.1250 (   723 PWs)   bands (ev):

    37.4240  41.6672  41.6870  44.5504  50.4952  52.9189  52.9454  57.0430
    57.5736  60.7365

          k =-0.3750-0.3750 0.3750 (   717 PWs)   bands (ev):

    39.8894  43.9860  44.0161  44.0458  47.7849  47.8176  47.8505  51.6517
    66.9754  66.9767

          k =-0.3750 0.3750-0.3750 (   717 PWs)   bands (ev):

    39.8894  43.9938  44.0160  44.0380  47.7934  47.8176  47.8420  51.6518
    66.9746  66.9776

          k = 0.3750-0.3750-0.3750 (   717 PWs)   bands (ev):

    39.8894  43.9896  44.0160  44.0422  47.7890  47.8177  47.8466  51.6516
    66.9745  66.9771

     the Fermi energy is    52.6617 ev

!    total energy              =    -141.24277364 Ry
     Harris-Foulkes estimate   =    -141.24277408 Ry
     estimated scf accuracy    <       0.00000066 Ry

     total all-electron energy =     -1925.813901 Ry

     The total energy is the sum of the following terms:

     one-electron contribution =      58.67242811 Ry
     hartree contribution      =       0.21195496 Ry
     xc contribution           =     -17.28513027 Ry
     ewald contribution        =     -40.85514768 Ry
     one-center paw contrib.   =    -141.98625860 Ry
     smearing contrib. (-TS)   =      -0.00062016 Ry

     convergence has been achieved in  10 iterations

     Forces acting on atoms (cartesian axes, Ry/au):

     atom    1 type  1   force =     0.00202874   -0.00041345    0.01638106
     atom    2 type  1   force =    -0.00328655    0.00370553    0.01635735
     atom    3 type  1   force =    -0.00056532   -0.00064391   -0.01727872
     atom    4 type  1   force =     0.00182314   -0.00264818   -0.01545969

     Total force =     0.033367     Total SCF correction =     0.000023


     Computing stress (Cartesian axis) and pressure

          total   stress  (Ry/bohr**3)                   (kbar)     P=59672.38
   0.40565011   0.00000103   0.00000085      59673.18      0.15      0.13
   0.00000103   0.40563891  -0.00000100          0.15  59671.53     -0.15
   0.00000085  -0.00000100   0.40564494          0.13     -0.15  59672.42


     Writing output data file fe_scf_fcc_2.save/
 
     init_run     :      0.15s CPU      0.16s WALL (       1 calls)
     electrons    :      1.12s CPU      1.23s WALL (       1 calls)
     forces       :      0.01s CPU      0.01s WALL (       1 calls)
     stress       :      0.01s CPU      0.01s WALL (       1 calls)

     Called by init_run:
     wfcinit      :      0.06s CPU      0.07s WALL (       1 calls)
     potinit      :      0.04s CPU      0.04s WALL (       1 calls)
     hinit0       :      0.05s CPU      0.05s WALL (       1 calls)

     Called by electrons:
     c_bands      :      0.86s CPU      0.94s WALL (      10 calls)
     sum_band     :      0.13s CPU      0.14s WALL (      10 calls)
     v_of_rho     :      0.02s CPU      0.02s WALL (      11 calls)
     newd         :      0.00s CPU      0.00s WALL (      11 calls)
     PAW_pot      :      0.13s CPU      0.14s WALL (      11 calls)
     mix_rho      :      0.00s CPU      0.00s WALL (      10 calls)

     Called by c_bands:
     init_us_2    :      0.01s CPU      0.01s WALL (     736 calls)
     cegterg      :      0.83s CPU      0.91s WALL (     320 calls)

     Called by sum_band:
     sum_band:bec :      0.00s CPU      0.00s WALL (     320 calls)
     addusdens    :      0.00s CPU      0.00s WALL (      10 calls)

     Called by *egterg:
     h_psi        :      0.60s CPU      0.66s WALL (    1040 calls)
     s_psi        :      0.01s CPU      0.01s WALL (    1040 calls)
     g_psi        :      0.00s CPU      0.00s WALL (     688 calls)
     cdiaghg      :      0.17s CPU      0.19s WALL (    1008 calls)

     Called by h_psi:
     h_psi:pot    :      0.60s CPU      0.66s WALL (    1040 calls)
     h_psi:calbec :      0.05s CPU      0.06s WALL (    1040 calls)
     vloc_psi     :      0.53s CPU      0.58s WALL (    1040 calls)
     add_vuspsi   :      0.01s CPU      0.01s WALL (    1040 calls)

     General routines
     calbec       :      0.08s CPU      0.09s WALL (    1520 calls)
     fft          :      0.06s CPU      0.06s WALL (     147 calls)
     ffts         :      0.00s CPU      0.00s WALL (      10 calls)
     fftw         :      0.59s CPU      0.65s WALL (   20688 calls)
 
     Parallel routines
     fft_scatt_xy :      0.04s CPU      0.04s WALL (   20845 calls)
     fft_scatt_yz :      0.51s CPU      0.56s WALL (   20845 calls)
 
     PWSCF        :     1.90s CPU         2.20s WALL

 
   This run was terminated on:  19: 2:21  22Oct2019            

=------------------------------------------------------------------------------=
   JOB DONE.
=------------------------------------------------------------------------------=
