
     Program PWSCF v.6.3 starts on 22Oct2019 at 19: 0:16 

     This program is part of the open-source Quantum ESPRESSO suite
     for quantum simulation of materials; please cite
         "P. Giannozzi et al., J. Phys.:Condens. Matter 21 395502 (2009);
         "P. Giannozzi et al., J. Phys.:Condens. Matter 29 465901 (2017);
          URL http://www.quantum-espresso.org", 
     in publications or presentations arising from this work. More details at
     http://www.quantum-espresso.org/quote

     Parallel version (MPI & OpenMP), running on      20 processor cores
     Number of MPI processes:                20
     Threads/MPI process:                     1

     MPI processes distributed on     1 nodes
     R & G space division:  proc/nbgrp/npool/nimage =      20
     Reading input from /rds/homes/b/bxp912/jobs/20191022_test/wd/runpwscf/file_10004.in
Warning: card &IONS ignored
Warning: card ION_DYNAMICS = 'BFGS', ignored
Warning: card / ignored
Warning: card &CELL ignored
Warning: card CELL_DYNAMICS = 'BFGS', ignored
Warning: card CELL_FACTOR = 2.0, ignored
Warning: card PRESS = 0.0, ignored
Warning: card / ignored

     Current dimensions of program PWSCF are:
     Max number of different atomic species (ntypx) = 10
     Max number of k-points (npk) =  40000
     Max angular momentum in pseudopotentials (lmaxx) =  3
     Message from routine read_upf::
     Pseudo file /rds/homes/b/bxp912/pp/Al.pbe-nl-kjpaw_psl.1.0.0.UPF has been successfully fixed on the fly.
To avoid this message in the future you can permanently fix 
 your pseudo files following instructions given in: 
https://gitlab.com/QEF/q-e/blob/master/upftools/how_to_fix_upf.md
               file Al.pbe-nl-kjpaw_psl.1.0.0.UPF: wavefunction(s)  3S 3P renormalized

     Subspace diagonalization in iterative solution of the eigenvalue problem:
     a serial algorithm will be used

 
     Parallelization info
     --------------------
     sticks:   dense  smooth     PW     G-vecs:    dense   smooth      PW
     Min          10      10      3                  114      114      21
     Max          11      11      4                  117      117      26
     Sum         213     213     69                 2301     2301     461
 


     bravais-lattice index     =            0
     lattice parameter (alat)  =       4.0400  a.u.
     unit-cell volume          =      65.9393 (a.u.)^3
     number of atoms/cell      =            4
     number of atomic types    =            1
     number of electrons       =        12.00
     number of Kohn-Sham states=           10
     kinetic-energy cutoff     =      40.0000  Ry
     charge density cutoff     =     160.0000  Ry
     convergence threshold     =      1.0E-06
     mixing beta               =       0.1000
     number of iterations used =           10  TF        mixing
     Exchange-correlation      = SLA PW PBX PBC ( 1  4  3  4 0 0)

     celldm(1)=   4.040000  celldm(2)=   0.000000  celldm(3)=   0.000000
     celldm(4)=   0.000000  celldm(5)=   0.000000  celldm(6)=   0.000000

     crystal axes: (cart. coord. in units of alat)
               a(1) = (   1.000000   0.000000   0.000000 )  
               a(2) = (   0.000000   1.000000   0.000000 )  
               a(3) = (   0.000000   0.000000   1.000000 )  

     reciprocal axes: (cart. coord. in units 2 pi/alat)
               b(1) = (  1.000000  0.000000  0.000000 )  
               b(2) = (  0.000000  1.000000  0.000000 )  
               b(3) = (  0.000000  0.000000  1.000000 )  


     PseudoPot. # 1 for Al read from file:
     /rds/homes/b/bxp912/pp/Al.pbe-nl-kjpaw_psl.1.0.0.UPF
     MD5 check sum: 339dbea23cf3ab9a065ad45c0f9085d7
     Pseudo is Projector augmented-wave + core cor, Zval =  3.0
     Generated using "atomic" code by A. Dal Corso v.5.1
     Shape of augmentation charge: PSQ
     Using radial grid of 1135 points,  4 beta functions with: 
                l(1) =   0
                l(2) =   0
                l(3) =   1
                l(4) =   1
     Q(r) pseudized with 0 coefficients 


     atomic species   valence    mass     pseudopotential
        Al             3.00    26.98200     Al( 1.00)

     No symmetry found



   Cartesian axes

     site n.     atom                  positions (alat units)
         1           Al  tau(   1) = (  -0.0001235   0.0000359   0.0002572  )
         2           Al  tau(   2) = (   0.5003009   0.4992819   0.0002658  )
         3           Al  tau(   3) = (   0.4996490   0.0001153   0.5011170  )
         4           Al  tau(   4) = (  -0.0000756   0.5008267   0.5006943  )

     number of k points=    32  Marzari-Vanderbilt smearing, width (Ry)=  0.0200
                       cart. coord. in units 2pi/alat
        k(    1) = (   0.1250000   0.1250000   0.1250000), wk =   0.0625000
        k(    2) = (   0.1250000   0.1250000   0.3750000), wk =   0.0625000
        k(    3) = (   0.1250000   0.3750000   0.3750000), wk =   0.0625000
        k(    4) = (   0.3750000   0.3750000   0.3750000), wk =   0.0625000
        k(    5) = (  -0.1250000  -0.1250000   0.1250000), wk =   0.0625000
        k(    6) = (  -0.1250000   0.1250000  -0.1250000), wk =   0.0625000
        k(    7) = (   0.1250000  -0.1250000  -0.1250000), wk =   0.0625000
        k(    8) = (  -0.1250000  -0.1250000   0.3750000), wk =   0.0625000
        k(    9) = (  -0.1250000   0.1250000  -0.3750000), wk =   0.0625000
        k(   10) = (   0.1250000  -0.1250000  -0.3750000), wk =   0.0625000
        k(   11) = (   0.3750000  -0.1250000   0.1250000), wk =   0.0625000
        k(   12) = (  -0.3750000  -0.1250000  -0.1250000), wk =   0.0625000
        k(   13) = (   0.3750000   0.1250000  -0.1250000), wk =   0.0625000
        k(   14) = (  -0.3750000   0.1250000   0.1250000), wk =   0.0625000
        k(   15) = (  -0.1250000   0.3750000   0.1250000), wk =   0.0625000
        k(   16) = (  -0.1250000  -0.3750000  -0.1250000), wk =   0.0625000
        k(   17) = (   0.1250000   0.3750000  -0.1250000), wk =   0.0625000
        k(   18) = (   0.1250000  -0.3750000   0.1250000), wk =   0.0625000
        k(   19) = (  -0.1250000  -0.3750000   0.3750000), wk =   0.0625000
        k(   20) = (  -0.1250000   0.3750000  -0.3750000), wk =   0.0625000
        k(   21) = (   0.1250000  -0.3750000  -0.3750000), wk =   0.0625000
        k(   22) = (   0.3750000   0.1250000  -0.3750000), wk =   0.0625000
        k(   23) = (  -0.3750000  -0.1250000  -0.3750000), wk =   0.0625000
        k(   24) = (   0.3750000  -0.1250000   0.3750000), wk =   0.0625000
        k(   25) = (  -0.3750000   0.1250000   0.3750000), wk =   0.0625000
        k(   26) = (   0.3750000  -0.3750000   0.1250000), wk =   0.0625000
        k(   27) = (  -0.3750000  -0.3750000  -0.1250000), wk =   0.0625000
        k(   28) = (   0.3750000   0.3750000  -0.1250000), wk =   0.0625000
        k(   29) = (  -0.3750000   0.3750000   0.1250000), wk =   0.0625000
        k(   30) = (  -0.3750000  -0.3750000   0.3750000), wk =   0.0625000
        k(   31) = (  -0.3750000   0.3750000  -0.3750000), wk =   0.0625000
        k(   32) = (   0.3750000  -0.3750000  -0.3750000), wk =   0.0625000

     Dense  grid:     2301 G-vectors     FFT dimensions: (  18,  18,  18)

     Estimated max dynamical RAM per process >       0.45 MB

     Estimated total dynamical RAM >       8.92 MB

     Initial potential from superposition of free atoms

     starting charge   11.99084, renormalised to   12.00000
     Starting wfcs are   16 randomized atomic wfcs
     Checking if some PAW data can be deallocated... 

     total cpu time spent up to now is        0.8 secs

     Self-consistent Calculation

     iteration #  1     ecut=    40.00 Ry     beta= 0.10
     Davidson diagonalization with overlap
     ethr =  1.00E-02,  avg # of iterations =  4.8

     total cpu time spent up to now is        1.0 secs

     total energy              =    -141.64973070 Ry
     Harris-Foulkes estimate   =    -141.80423817 Ry
     estimated scf accuracy    <       0.18117738 Ry

     iteration #  2     ecut=    40.00 Ry     beta= 0.10
     Davidson diagonalization with overlap
     ethr =  1.51E-03,  avg # of iterations =  1.0

     total cpu time spent up to now is        1.0 secs

     total energy              =    -141.15936230 Ry
     Harris-Foulkes estimate   =    -141.65322265 Ry
     estimated scf accuracy    <       0.15194595 Ry

     iteration #  3     ecut=    40.00 Ry     beta= 0.10
     Davidson diagonalization with overlap
     ethr =  1.27E-03,  avg # of iterations =  2.0

     total cpu time spent up to now is        1.2 secs

     total energy              =    -141.23640407 Ry
     Harris-Foulkes estimate   =    -141.24623580 Ry
     estimated scf accuracy    <       0.01477686 Ry

     iteration #  4     ecut=    40.00 Ry     beta= 0.10
     Davidson diagonalization with overlap
     ethr =  1.23E-04,  avg # of iterations =  1.0

     total cpu time spent up to now is        1.2 secs

     total energy              =    -141.23965697 Ry
     Harris-Foulkes estimate   =    -141.23695102 Ry
     estimated scf accuracy    <       0.01142617 Ry

     iteration #  5     ecut=    40.00 Ry     beta= 0.10
     Davidson diagonalization with overlap
     ethr =  9.52E-05,  avg # of iterations =  1.9

     total cpu time spent up to now is        1.3 secs

     total energy              =    -141.24160941 Ry
     Harris-Foulkes estimate   =    -141.24084042 Ry
     estimated scf accuracy    <       0.00050084 Ry

     iteration #  6     ecut=    40.00 Ry     beta= 0.10
     Davidson diagonalization with overlap
     ethr =  4.17E-06,  avg # of iterations =  2.8

     total cpu time spent up to now is        1.4 secs

     total energy              =    -141.24174261 Ry
     Harris-Foulkes estimate   =    -141.24175505 Ry
     estimated scf accuracy    <       0.00011222 Ry

     iteration #  7     ecut=    40.00 Ry     beta= 0.10
     Davidson diagonalization with overlap
     ethr =  9.35E-07,  avg # of iterations =  1.0

     total cpu time spent up to now is        1.5 secs

     total energy              =    -141.24105454 Ry
     Harris-Foulkes estimate   =    -141.24174496 Ry
     estimated scf accuracy    <       0.00009488 Ry

     iteration #  8     ecut=    40.00 Ry     beta= 0.10
     Davidson diagonalization with overlap
     ethr =  7.91E-07,  avg # of iterations =  2.0

     total cpu time spent up to now is        1.6 secs

     total energy              =    -141.24098780 Ry
     Harris-Foulkes estimate   =    -141.24108990 Ry
     estimated scf accuracy    <       0.00000604 Ry

     iteration #  9     ecut=    40.00 Ry     beta= 0.10
     Davidson diagonalization with overlap
     ethr =  5.04E-08,  avg # of iterations =  2.8

     total cpu time spent up to now is        1.8 secs

     total energy              =    -141.24094434 Ry
     Harris-Foulkes estimate   =    -141.24099108 Ry
     estimated scf accuracy    <       0.00001311 Ry

     iteration # 10     ecut=    40.00 Ry     beta= 0.10
     Davidson diagonalization with overlap
     ethr =  5.04E-08,  avg # of iterations =  2.4

     total cpu time spent up to now is        1.9 secs

     total energy              =    -141.24095098 Ry
     Harris-Foulkes estimate   =    -141.24094882 Ry
     estimated scf accuracy    <       0.00000567 Ry

     iteration # 11     ecut=    40.00 Ry     beta= 0.10
     Davidson diagonalization with overlap
     ethr =  4.73E-08,  avg # of iterations =  1.0

     total cpu time spent up to now is        2.0 secs

     total energy              =    -141.24094775 Ry
     Harris-Foulkes estimate   =    -141.24095120 Ry
     estimated scf accuracy    <       0.00000216 Ry

     iteration # 12     ecut=    40.00 Ry     beta= 0.10
     Davidson diagonalization with overlap
     ethr =  1.80E-08,  avg # of iterations =  2.0

     total cpu time spent up to now is        2.1 secs

     End of self-consistent calculation

          k = 0.1250 0.1250 0.1250 (   275 PWs)   bands (ev):

    30.9147  41.4403  41.4594  41.4781  52.4351  52.4554  52.4755  54.9322
    54.9421  54.9521

          k = 0.1250 0.1250 0.3750 (   280 PWs)   bands (ev):

    34.4071  39.0139  43.9445  43.9633  51.8141  51.8313  54.8804  54.8891
    55.6994  61.5204

          k = 0.1250 0.3750 0.3750 (   278 PWs)   bands (ev):

    37.4222  41.6573  41.6942  44.5501  50.4967  52.9094  52.9585  57.0501
    57.5713  60.7414

          k = 0.3750 0.3750 0.3750 (   289 PWs)   bands (ev):

    39.8879  43.9771  44.0151  44.0528  47.7772  47.8187  47.8602  51.6524
    66.9832  66.9887

          k =-0.1250-0.1250 0.1250 (   275 PWs)   bands (ev):

    30.9147  41.4443  41.4594  41.4742  52.4394  52.4553  52.4713  54.9343
    54.9421  54.9500

          k =-0.1250 0.1250-0.1250 (   275 PWs)   bands (ev):

    30.9147  41.4482  41.4593  41.4703  52.4435  52.4554  52.4671  54.9363
    54.9421  54.9480

          k = 0.1250-0.1250-0.1250 (   275 PWs)   bands (ev):

    30.9147  41.4461  41.4594  41.4724  52.4413  52.4554  52.4693  54.9352
    54.9421  54.9490

          k =-0.1250-0.1250 0.3750 (   280 PWs)   bands (ev):

    34.4071  39.0139  43.9445  43.9633  51.8141  51.8314  54.8805  54.8891
    55.6992  61.5205

          k =-0.1250 0.1250-0.3750 (   280 PWs)   bands (ev):

    34.4071  39.0139  43.9496  43.9582  51.8188  51.8267  54.8828  54.8868
    55.6993  61.5204

          k = 0.1250-0.1250-0.3750 (   280 PWs)   bands (ev):

    34.4071  39.0139  43.9496  43.9582  51.8187  51.8266  54.8828  54.8867
    55.6995  61.5200

          k = 0.3750-0.1250 0.1250 (   280 PWs)   bands (ev):

    34.4072  39.0138  43.9496  43.9583  51.8185  51.8265  54.8829  54.8870
    55.6994  61.5205

          k =-0.3750-0.1250-0.1250 (   280 PWs)   bands (ev):

    34.4072  39.0137  43.9459  43.9619  51.8155  51.8301  54.8807  54.8881
    55.7000  61.5205

          k = 0.3750 0.1250-0.1250 (   280 PWs)   bands (ev):

    34.4072  39.0137  43.9496  43.9583  51.8185  51.8265  54.8829  54.8870
    55.6995  61.5206

          k =-0.3750 0.1250 0.1250 (   280 PWs)   bands (ev):

    34.4072  39.0138  43.9459  43.9619  51.8155  51.8302  54.8808  54.8882
    55.6997  61.5206

          k =-0.1250 0.3750 0.1250 (   280 PWs)   bands (ev):

    34.4072  39.0137  43.9529  43.9553  51.8216  51.8239  54.8841  54.8852
    55.6994  61.5206

          k =-0.1250-0.3750-0.1250 (   280 PWs)   bands (ev):

    34.4072  39.0137  43.9494  43.9588  51.8183  51.8270  54.8826  54.8869
    55.6995  61.5206

          k = 0.1250 0.3750-0.1250 (   280 PWs)   bands (ev):

    34.4072  39.0137  43.9529  43.9553  51.8216  51.8238  54.8840  54.8852
    55.6997  61.5205

          k = 0.1250-0.3750 0.1250 (   280 PWs)   bands (ev):

    34.4072  39.0137  43.9494  43.9588  51.8184  51.8270  54.8826  54.8869
    55.6993  61.5206

          k =-0.1250-0.3750 0.3750 (   278 PWs)   bands (ev):

    37.4221  41.6657  41.6859  44.5499  50.4969  52.9205  52.9473  57.0494
    57.5723  60.7425

          k =-0.1250 0.3750-0.3750 (   278 PWs)   bands (ev):

    37.4221  41.6657  41.6859  44.5500  50.4968  52.9204  52.9472  57.0490
    57.5728  60.7412

          k = 0.1250-0.3750-0.3750 (   278 PWs)   bands (ev):

    37.4221  41.6573  41.6942  44.5501  50.4967  52.9094  52.9585  57.0497
    57.5716  60.7390

          k = 0.3750 0.1250-0.3750 (   278 PWs)   bands (ev):

    37.4221  41.6729  41.6785  44.5500  50.4967  52.9303  52.9377  57.0501
    57.5716  60.7447

          k =-0.3750-0.1250-0.3750 (   278 PWs)   bands (ev):

    37.4221  41.6649  41.6866  44.5498  50.4969  52.9196  52.9485  57.0503
    57.5712  60.7422

          k = 0.3750-0.1250 0.3750 (   278 PWs)   bands (ev):

    37.4221  41.6650  41.6866  44.5499  50.4968  52.9195  52.9484  57.0505
    57.5713  60.7422

          k =-0.3750 0.1250 0.3750 (   278 PWs)   bands (ev):

    37.4221  41.6729  41.6785  44.5500  50.4968  52.9304  52.9378  57.0497
    57.5716  60.7445

          k = 0.3750-0.3750 0.1250 (   278 PWs)   bands (ev):

    37.4222  41.6658  41.6857  44.5500  50.4965  52.9207  52.9471  57.0503
    57.5714  60.7439

          k =-0.3750-0.3750-0.1250 (   278 PWs)   bands (ev):

    37.4222  41.6541  41.6975  44.5499  50.4969  52.9050  52.9628  57.0483
    57.5733  60.7395

          k = 0.3750 0.3750-0.1250 (   278 PWs)   bands (ev):

    37.4222  41.6541  41.6975  44.5499  50.4967  52.9050  52.9627  57.0504
    57.5713  60.7385

          k =-0.3750 0.3750 0.1250 (   278 PWs)   bands (ev):

    37.4222  41.6658  41.6857  44.5500  50.4968  52.9208  52.9472  57.0457
    57.5758  60.7423

          k =-0.3750-0.3750 0.3750 (   289 PWs)   bands (ev):

    39.8878  43.9850  44.0151  44.0448  47.7859  47.8186  47.8514  51.6525
    66.9833  66.9869

          k =-0.3750 0.3750-0.3750 (   289 PWs)   bands (ev):

    39.8878  43.9928  44.0150  44.0371  47.7944  47.8186  47.8429  51.6526
    66.9845  66.9872

          k = 0.3750-0.3750-0.3750 (   289 PWs)   bands (ev):

    39.8878  43.9887  44.0150  44.0412  47.7900  47.8187  47.8475  51.6525
    66.9850  66.9876

     the Fermi energy is    52.6661 ev

!    total energy              =    -141.24094799 Ry
     Harris-Foulkes estimate   =    -141.24094834 Ry
     estimated scf accuracy    <       0.00000014 Ry

     total all-electron energy =     -1925.812076 Ry

     The total energy is the sum of the following terms:

     one-electron contribution =      58.67588016 Ry
     hartree contribution      =       0.21191862 Ry
     xc contribution           =     -17.28548474 Ry
     ewald contribution        =     -40.85514931 Ry
     one-center paw contrib.   =    -141.98743404 Ry
     smearing contrib. (-TS)   =      -0.00067868 Ry

     convergence has been achieved in  12 iterations

     Forces acting on atoms (cartesian axes, Ry/au):

     atom    1 type  1   force =     0.00199666   -0.00038885    0.01646859
     atom    2 type  1   force =    -0.00320278    0.00365960    0.01644156
     atom    3 type  1   force =    -0.00058072   -0.00070594   -0.01730783
     atom    4 type  1   force =     0.00178684   -0.00256481   -0.01560231

     Total force =     0.033510     Total SCF correction =     0.000010


     Computing stress (Cartesian axis) and pressure

          total   stress  (Ry/bohr**3)                   (kbar)     P=59657.33
   0.40554781   0.00000116   0.00000095      59658.13      0.17      0.14
   0.00000116   0.40553647  -0.00000124          0.17  59656.46     -0.18
   0.00000095  -0.00000124   0.40554279          0.14     -0.18  59657.39


     Writing output data file fe_scf_fcc_2.save/
 
     init_run     :      0.08s CPU      0.10s WALL (       1 calls)
     electrons    :      1.16s CPU      1.30s WALL (       1 calls)
     forces       :      0.01s CPU      0.01s WALL (       1 calls)
     stress       :      0.01s CPU      0.01s WALL (       1 calls)

     Called by init_run:
     wfcinit      :      0.04s CPU      0.04s WALL (       1 calls)
     potinit      :      0.01s CPU      0.02s WALL (       1 calls)
     hinit0       :      0.02s CPU      0.03s WALL (       1 calls)

     Called by electrons:
     c_bands      :      0.88s CPU      0.98s WALL (      12 calls)
     sum_band     :      0.13s CPU      0.15s WALL (      12 calls)
     v_of_rho     :      0.01s CPU      0.01s WALL (      13 calls)
     newd         :      0.00s CPU      0.01s WALL (      13 calls)
     PAW_pot      :      0.15s CPU      0.17s WALL (      13 calls)
     mix_rho      :      0.00s CPU      0.00s WALL (      12 calls)

     Called by c_bands:
     init_us_2    :      0.01s CPU      0.01s WALL (     864 calls)
     cegterg      :      0.85s CPU      0.95s WALL (     384 calls)

     Called by sum_band:
     sum_band:bec :      0.00s CPU      0.00s WALL (     384 calls)
     addusdens    :      0.00s CPU      0.00s WALL (      12 calls)

     Called by *egterg:
     h_psi        :      0.58s CPU      0.65s WALL (    1205 calls)
     s_psi        :      0.01s CPU      0.01s WALL (    1205 calls)
     g_psi        :      0.00s CPU      0.00s WALL (     789 calls)
     cdiaghg      :      0.20s CPU      0.22s WALL (    1173 calls)

     Called by h_psi:
     h_psi:pot    :      0.58s CPU      0.65s WALL (    1205 calls)
     h_psi:calbec :      0.06s CPU      0.06s WALL (    1205 calls)
     vloc_psi     :      0.51s CPU      0.57s WALL (    1205 calls)
     add_vuspsi   :      0.01s CPU      0.01s WALL (    1205 calls)

     General routines
     calbec       :      0.08s CPU      0.09s WALL (    1749 calls)
     fft          :      0.02s CPU      0.03s WALL (     169 calls)
     ffts         :      0.00s CPU      0.00s WALL (      12 calls)
     fftw         :      0.57s CPU      0.63s WALL (   24094 calls)
 
     Parallel routines
     fft_scatt_xy :      0.04s CPU      0.04s WALL (   24275 calls)
     fft_scatt_yz :      0.44s CPU      0.49s WALL (   24275 calls)
 
     PWSCF        :     1.87s CPU         2.39s WALL

 
   This run was terminated on:  19: 0:18  22Oct2019            

=------------------------------------------------------------------------------=
   JOB DONE.
=------------------------------------------------------------------------------=
