
     Program PWSCF v.6.3 starts on 20Oct2019 at  2:51:48 

     This program is part of the open-source Quantum ESPRESSO suite
     for quantum simulation of materials; please cite
         "P. Giannozzi et al., J. Phys.:Condens. Matter 21 395502 (2009);
         "P. Giannozzi et al., J. Phys.:Condens. Matter 29 465901 (2017);
          URL http://www.quantum-espresso.org", 
     in publications or presentations arising from this work. More details at
     http://www.quantum-espresso.org/quote

     Parallel version (MPI), running on     1 processors

     MPI processes distributed on     1 nodes
     Reading input from /cloud/Code/python/py_pwscf_converge/src/example/wd/runpwscf/file_10113.in
Warning: card &IONS ignored
Warning: card ION_DYNAMICS = 'BFGS', ignored
Warning: card / ignored
Warning: card &CELL ignored
Warning: card CELL_DYNAMICS = 'BFGS', ignored
Warning: card CELL_FACTOR = 2.0, ignored
Warning: card PRESS = 0.0, ignored
Warning: card / ignored

     Current dimensions of program PWSCF are:
     Max number of different atomic species (ntypx) = 10
     Max number of k-points (npk) =  40000
     Max angular momentum in pseudopotentials (lmaxx) =  3
               file Al.pbe-nl-kjpaw_psl.1.0.0.UPF: wavefunction(s)  3S 3P renormalized

     Subspace diagonalization in iterative solution of the eigenvalue problem:
     a serial algorithm will be used


     G-vector sticks info
     --------------------
     sticks:   dense  smooth     PW     G-vecs:    dense   smooth      PW
     Sum         305     137     45                 4139     1141     251



     bravais-lattice index     =            0
     lattice parameter (alat)  =       4.0400  a.u.
     unit-cell volume          =      65.9393 (a.u.)^3
     number of atoms/cell      =            4
     number of atomic types    =            1
     number of electrons       =        12.00
     number of Kohn-Sham states=           10
     kinetic-energy cutoff     =      25.0000  Ry
     charge density cutoff     =     240.0000  Ry
     convergence threshold     =      1.0E-06
     mixing beta               =       0.1000
     number of iterations used =           10  TF        mixing
     Exchange-correlation      = SLA PW PBX PBC ( 1  4  3  4 0 0)

     celldm(1)=   4.040000  celldm(2)=   0.000000  celldm(3)=   0.000000
     celldm(4)=   0.000000  celldm(5)=   0.000000  celldm(6)=   0.000000

     crystal axes: (cart. coord. in units of alat)
               a(1) = (   1.000000   0.000000   0.000000 )  
               a(2) = (   0.000000   1.000000   0.000000 )  
               a(3) = (   0.000000   0.000000   1.000000 )  

     reciprocal axes: (cart. coord. in units 2 pi/alat)
               b(1) = (  1.000000  0.000000  0.000000 )  
               b(2) = (  0.000000  1.000000  0.000000 )  
               b(3) = (  0.000000  0.000000  1.000000 )  


     PseudoPot. # 1 for Al read from file:
     /opt/pp/Al.pbe-nl-kjpaw_psl.1.0.0.UPF
     MD5 check sum: 1b67f78b73fe58c7924490f171ce8a1e
     Pseudo is Projector augmented-wave + core cor, Zval =  3.0
     Generated using "atomic" code by A. Dal Corso v.6.3
     Shape of augmentation charge: PSQ
     Using radial grid of 1135 points,  4 beta functions with: 
                l(1) =   0
                l(2) =   0
                l(3) =   1
                l(4) =   1
     Q(r) pseudized with 0 coefficients 


     atomic species   valence    mass     pseudopotential
        Al             3.00    26.98200     Al( 1.00)

     No symmetry found



   Cartesian axes

     site n.     atom                  positions (alat units)
         1           Al  tau(   1) = (  -0.0001235   0.0000359   0.0002572  )
         2           Al  tau(   2) = (   0.5003009   0.4992819   0.0002658  )
         3           Al  tau(   3) = (   0.4996490   0.0001153   0.5011170  )
         4           Al  tau(   4) = (  -0.0000756   0.5008267   0.5006943  )

     number of k points=    32  Marzari-Vanderbilt smearing, width (Ry)=  0.0200
                       cart. coord. in units 2pi/alat
        k(    1) = (   0.1250000   0.1250000   0.1250000), wk =   0.0625000
        k(    2) = (   0.1250000   0.1250000   0.3750000), wk =   0.0625000
        k(    3) = (   0.1250000   0.3750000   0.3750000), wk =   0.0625000
        k(    4) = (   0.3750000   0.3750000   0.3750000), wk =   0.0625000
        k(    5) = (  -0.1250000  -0.1250000   0.1250000), wk =   0.0625000
        k(    6) = (  -0.1250000   0.1250000  -0.1250000), wk =   0.0625000
        k(    7) = (   0.1250000  -0.1250000  -0.1250000), wk =   0.0625000
        k(    8) = (  -0.1250000  -0.1250000   0.3750000), wk =   0.0625000
        k(    9) = (  -0.1250000   0.1250000  -0.3750000), wk =   0.0625000
        k(   10) = (   0.1250000  -0.1250000  -0.3750000), wk =   0.0625000
        k(   11) = (   0.3750000  -0.1250000   0.1250000), wk =   0.0625000
        k(   12) = (  -0.3750000  -0.1250000  -0.1250000), wk =   0.0625000
        k(   13) = (   0.3750000   0.1250000  -0.1250000), wk =   0.0625000
        k(   14) = (  -0.3750000   0.1250000   0.1250000), wk =   0.0625000
        k(   15) = (  -0.1250000   0.3750000   0.1250000), wk =   0.0625000
        k(   16) = (  -0.1250000  -0.3750000  -0.1250000), wk =   0.0625000
        k(   17) = (   0.1250000   0.3750000  -0.1250000), wk =   0.0625000
        k(   18) = (   0.1250000  -0.3750000   0.1250000), wk =   0.0625000
        k(   19) = (  -0.1250000  -0.3750000   0.3750000), wk =   0.0625000
        k(   20) = (  -0.1250000   0.3750000  -0.3750000), wk =   0.0625000
        k(   21) = (   0.1250000  -0.3750000  -0.3750000), wk =   0.0625000
        k(   22) = (   0.3750000   0.1250000  -0.3750000), wk =   0.0625000
        k(   23) = (  -0.3750000  -0.1250000  -0.3750000), wk =   0.0625000
        k(   24) = (   0.3750000  -0.1250000   0.3750000), wk =   0.0625000
        k(   25) = (  -0.3750000   0.1250000   0.3750000), wk =   0.0625000
        k(   26) = (   0.3750000  -0.3750000   0.1250000), wk =   0.0625000
        k(   27) = (  -0.3750000  -0.3750000  -0.1250000), wk =   0.0625000
        k(   28) = (   0.3750000   0.3750000  -0.1250000), wk =   0.0625000
        k(   29) = (  -0.3750000   0.3750000   0.1250000), wk =   0.0625000
        k(   30) = (  -0.3750000  -0.3750000   0.3750000), wk =   0.0625000
        k(   31) = (  -0.3750000   0.3750000  -0.3750000), wk =   0.0625000
        k(   32) = (   0.3750000  -0.3750000  -0.3750000), wk =   0.0625000

     Dense  grid:     4139 G-vectors     FFT dimensions: (  20,  20,  20)

     Smooth grid:     1141 G-vectors     FFT dimensions: (  15,  15,  15)

     Estimated max dynamical RAM per process >       6.88 MB

     Initial potential from superposition of free atoms

     starting charge   11.99084, renormalised to   12.00000
     Starting wfcs are   16 randomized atomic wfcs
     Checking if some PAW data can be deallocated... 

     total cpu time spent up to now is        1.1 secs

     Self-consistent Calculation

     iteration #  1     ecut=    25.00 Ry     beta= 0.10
     Davidson diagonalization with overlap
     ethr =  1.00E-02,  avg # of iterations =  4.9

     total cpu time spent up to now is        1.5 secs

     total energy              =    -141.59678289 Ry
     Harris-Foulkes estimate   =    -141.75246258 Ry
     estimated scf accuracy    <       0.18305406 Ry

     iteration #  2     ecut=    25.00 Ry     beta= 0.10
     Davidson diagonalization with overlap
     ethr =  1.53E-03,  avg # of iterations =  1.0

     total cpu time spent up to now is        1.9 secs

     total energy              =    -141.10413746 Ry
     Harris-Foulkes estimate   =    -141.60027634 Ry
     estimated scf accuracy    <       0.15414408 Ry

     iteration #  3     ecut=    25.00 Ry     beta= 0.10
     Davidson diagonalization with overlap
     ethr =  1.28E-03,  avg # of iterations =  2.0

     total cpu time spent up to now is        2.2 secs

     total energy              =    -141.18620852 Ry
     Harris-Foulkes estimate   =    -141.20263506 Ry
     estimated scf accuracy    <       0.01649914 Ry

     iteration #  4     ecut=    25.00 Ry     beta= 0.10
     Davidson diagonalization with overlap
     ethr =  1.37E-04,  avg # of iterations =  1.0

     total cpu time spent up to now is        2.6 secs

     total energy              =    -141.18491361 Ry
     Harris-Foulkes estimate   =    -141.18673391 Ry
     estimated scf accuracy    <       0.01282465 Ry

     iteration #  5     ecut=    25.00 Ry     beta= 0.10
     Davidson diagonalization with overlap
     ethr =  1.07E-04,  avg # of iterations =  1.0

     total cpu time spent up to now is        2.9 secs

     total energy              =    -141.18745255 Ry
     Harris-Foulkes estimate   =    -141.18613011 Ry
     estimated scf accuracy    <       0.00047982 Ry

     iteration #  6     ecut=    25.00 Ry     beta= 0.10
     Davidson diagonalization with overlap
     ethr =  4.00E-06,  avg # of iterations =  2.8

     total cpu time spent up to now is        3.3 secs

     total energy              =    -141.18733737 Ry
     Harris-Foulkes estimate   =    -141.18766005 Ry
     estimated scf accuracy    <       0.00005522 Ry

     iteration #  7     ecut=    25.00 Ry     beta= 0.10
     Davidson diagonalization with overlap
     ethr =  4.60E-07,  avg # of iterations =  1.3

     total cpu time spent up to now is        3.7 secs

     total energy              =    -141.18611397 Ry
     Harris-Foulkes estimate   =    -141.18733922 Ry
     estimated scf accuracy    <       0.00004741 Ry

     iteration #  8     ecut=    25.00 Ry     beta= 0.10
     Davidson diagonalization with overlap
     ethr =  3.95E-07,  avg # of iterations =  3.0

     total cpu time spent up to now is        4.1 secs

     total energy              =    -141.18619339 Ry
     Harris-Foulkes estimate   =    -141.18619311 Ry
     estimated scf accuracy    <       0.00000633 Ry

     iteration #  9     ecut=    25.00 Ry     beta= 0.10
     Davidson diagonalization with overlap
     ethr =  5.28E-08,  avg # of iterations =  1.0

     total cpu time spent up to now is        4.4 secs

     total energy              =    -141.18613765 Ry
     Harris-Foulkes estimate   =    -141.18619344 Ry
     estimated scf accuracy    <       0.00000634 Ry

     iteration # 10     ecut=    25.00 Ry     beta= 0.10
     Davidson diagonalization with overlap
     ethr =  5.28E-08,  avg # of iterations =  2.2

     total cpu time spent up to now is        4.8 secs

     total energy              =    -141.18613760 Ry
     Harris-Foulkes estimate   =    -141.18614146 Ry
     estimated scf accuracy    <       0.00000471 Ry

     iteration # 11     ecut=    25.00 Ry     beta= 0.10
     Davidson diagonalization with overlap
     ethr =  3.92E-08,  avg # of iterations =  1.5

     total cpu time spent up to now is        5.1 secs

     End of self-consistent calculation

          k = 0.1250 0.1250 0.1250 (   144 PWs)   bands (ev):

    30.9313  41.5197  41.5383  41.5565  52.5642  52.5847  52.6048  54.9728
    54.9831  54.9933

          k = 0.1250 0.1250 0.3750 (   138 PWs)   bands (ev):

    34.4220  39.0632  43.9986  44.0173  51.9432  51.9608  54.9731  54.9816
    55.8699  61.7710

          k = 0.1250 0.3750 0.3750 (   141 PWs)   bands (ev):

    37.4450  41.6913  41.7281  44.5873  50.5872  53.0479  53.0980  57.1530
    57.6912  60.8835

          k = 0.3750 0.3750 0.3750 (   145 PWs)   bands (ev):

    39.9357  44.0141  44.0518  44.0891  47.8477  47.8894  47.9308  51.7783
    67.2032  67.2078

          k =-0.1250-0.1250 0.1250 (   144 PWs)   bands (ev):

    30.9313  41.5235  41.5382  41.5527  52.5686  52.5845  52.6006  54.9750
    54.9830  54.9913

          k =-0.1250 0.1250-0.1250 (   144 PWs)   bands (ev):

    30.9313  41.5272  41.5384  41.5488  52.5726  52.5847  52.5964  54.9770
    54.9831  54.9891

          k = 0.1250-0.1250-0.1250 (   144 PWs)   bands (ev):

    30.9313  41.5253  41.5383  41.5509  52.5705  52.5846  52.5987  54.9760
    54.9830  54.9902

          k =-0.1250-0.1250 0.3750 (   138 PWs)   bands (ev):

    34.4220  39.0632  43.9986  44.0173  51.9433  51.9608  54.9731  54.9816
    55.8697  61.7710

          k =-0.1250 0.1250-0.3750 (   138 PWs)   bands (ev):

    34.4220  39.0632  44.0036  44.0122  51.9479  51.9560  54.9754  54.9793
    55.8697  61.7711

          k = 0.1250-0.1250-0.3750 (   138 PWs)   bands (ev):

    34.4220  39.0632  44.0037  44.0123  51.9479  51.9560  54.9754  54.9793
    55.8699  61.7705

          k = 0.3750-0.1250 0.1250 (   138 PWs)   bands (ev):

    34.4220  39.0631  44.0037  44.0123  51.9478  51.9559  54.9756  54.9795
    55.8699  61.7708

          k =-0.3750-0.1250-0.1250 (   138 PWs)   bands (ev):

    34.4220  39.0631  44.0001  44.0159  51.9446  51.9595  54.9734  54.9807
    55.8704  61.7710

          k = 0.3750 0.1250-0.1250 (   138 PWs)   bands (ev):

    34.4220  39.0631  44.0037  44.0123  51.9478  51.9559  54.9756  54.9795
    55.8699  61.7712

          k =-0.3750 0.1250 0.1250 (   138 PWs)   bands (ev):

    34.4220  39.0631  44.0000  44.0159  51.9447  51.9596  54.9735  54.9807
    55.8701  61.7710

          k =-0.1250 0.3750 0.1250 (   138 PWs)   bands (ev):

    34.4220  39.0630  44.0069  44.0093  51.9509  51.9532  54.9767  54.9778
    55.8698  61.7710

          k =-0.1250-0.3750-0.1250 (   138 PWs)   bands (ev):

    34.4220  39.0630  44.0035  44.0128  51.9475  51.9563  54.9752  54.9795
    55.8699  61.7712

          k = 0.1250 0.3750-0.1250 (   138 PWs)   bands (ev):

    34.4220  39.0630  44.0069  44.0093  51.9509  51.9531  54.9766  54.9777
    55.8701  61.7710

          k = 0.1250-0.3750 0.1250 (   138 PWs)   bands (ev):

    34.4220  39.0630  44.0034  44.0128  51.9476  51.9563  54.9752  54.9795
    55.8697  61.7710

          k =-0.1250-0.3750 0.3750 (   141 PWs)   bands (ev):

    37.4449  41.6998  41.7198  44.5871  50.5874  53.0593  53.0865  57.1524
    57.6921  60.8836

          k =-0.1250 0.3750-0.3750 (   141 PWs)   bands (ev):

    37.4449  41.6998  41.7198  44.5871  50.5873  53.0592  53.0865  57.1520
    57.6926  60.8851

          k = 0.1250-0.3750-0.3750 (   141 PWs)   bands (ev):

    37.4449  41.6914  41.7281  44.5873  50.5873  53.0479  53.0980  57.1526
    57.6915  60.8803

          k = 0.3750 0.1250-0.3750 (   141 PWs)   bands (ev):

    37.4449  41.7070  41.7125  44.5872  50.5872  53.0693  53.0768  57.1531
    57.6914  60.8853

          k =-0.3750-0.1250-0.3750 (   141 PWs)   bands (ev):

    37.4449  41.6989  41.7205  44.5870  50.5875  53.0584  53.0878  57.1533
    57.6910  60.8840

          k = 0.3750-0.1250 0.3750 (   141 PWs)   bands (ev):

    37.4449  41.6990  41.7206  44.5871  50.5873  53.0582  53.0877  57.1534
    57.6912  60.8871

          k =-0.3750 0.1250 0.3750 (   141 PWs)   bands (ev):

    37.4449  41.7070  41.7125  44.5871  50.5873  53.0694  53.0769  57.1527
    57.6914  60.8852

          k = 0.3750-0.3750 0.1250 (   141 PWs)   bands (ev):

    37.4450  41.6998  41.7197  44.5872  50.5870  53.0593  53.0865  57.1533
    57.6912  60.8845

          k =-0.3750-0.3750-0.1250 (   141 PWs)   bands (ev):

    37.4450  41.6881  41.7314  44.5871  50.5874  53.0434  53.1024  57.1513
    57.6931  60.8793

          k = 0.3750 0.3750-0.1250 (   141 PWs)   bands (ev):

    37.4450  41.6881  41.7314  44.5871  50.5873  53.0433  53.1024  57.1533
    57.6911  60.8810

          k =-0.3750 0.3750 0.1250 (   141 PWs)   bands (ev):

    37.4450  41.6998  41.7197  44.5872  50.5874  53.0594  53.0866  57.1487
    57.6957  60.8843

          k =-0.3750-0.3750 0.3750 (   145 PWs)   bands (ev):

    39.9356  44.0219  44.0517  44.0813  47.8565  47.8892  47.9222  51.7784
    67.2036  67.2084

          k =-0.3750 0.3750-0.3750 (   145 PWs)   bands (ev):

    39.9356  44.0296  44.0518  44.0735  47.8650  47.8893  47.9136  51.7784
    67.2040  67.2075

          k = 0.3750-0.3750-0.3750 (   145 PWs)   bands (ev):

    39.9356  44.0256  44.0516  44.0776  47.8606  47.8893  47.9182  51.7783
    67.2044  67.2074

     the Fermi energy is    52.7983 ev

!    total energy              =    -141.18613732 Ry
     Harris-Foulkes estimate   =    -141.18613826 Ry
     estimated scf accuracy    <       0.00000066 Ry

     total all-electron energy =     -1925.757259 Ry

     The total energy is the sum of the following terms:

     one-electron contribution =      58.74549925 Ry
     hartree contribution      =       0.21426888 Ry
     xc contribution           =     -17.28857717 Ry
     ewald contribution        =     -40.85514763 Ry
     one-center paw contrib.   =    -142.00163959 Ry
     smearing contrib. (-TS)   =      -0.00054106 Ry

     convergence has been achieved in  11 iterations

     Forces acting on atoms (cartesian axes, Ry/au):

     atom    1 type  1   force =     0.00200835   -0.00046554    0.01687192
     atom    2 type  1   force =    -0.00329722    0.00382350    0.01682699
     atom    3 type  1   force =    -0.00050718   -0.00068323   -0.01774682
     atom    4 type  1   force =     0.00179605   -0.00267473   -0.01595209

     Total force =     0.034323     Total SCF correction =     0.000025


     Computing stress (Cartesian axis) and pressure

          total   stress  (Ry/bohr**3)                   (kbar)     P=59562.41
   0.40490266   0.00000117   0.00000112      59563.23      0.17      0.16
   0.00000117   0.40489090  -0.00000109          0.17  59561.50     -0.16
   0.00000112  -0.00000109   0.40489778          0.16     -0.16  59562.51


     Writing output data file fe_scf_fcc_2.save/

     init_run     :      0.52s CPU      0.53s WALL (       1 calls)
     electrons    :      3.98s CPU      4.03s WALL (       1 calls)
     forces       :      0.04s CPU      0.04s WALL (       1 calls)
     stress       :      0.08s CPU      0.08s WALL (       1 calls)

     Called by init_run:
     wfcinit      :      0.05s CPU      0.05s WALL (       1 calls)
     potinit      :      0.25s CPU      0.26s WALL (       1 calls)
     hinit0       :      0.21s CPU      0.21s WALL (       1 calls)

     Called by electrons:
     c_bands      :      0.92s CPU      0.95s WALL (      11 calls)
     sum_band     :      0.18s CPU      0.18s WALL (      11 calls)
     v_of_rho     :      0.06s CPU      0.07s WALL (      12 calls)
     newd         :      0.07s CPU      0.07s WALL (      12 calls)
     PAW_pot      :      2.98s CPU      3.00s WALL (      12 calls)
     mix_rho      :      0.02s CPU      0.01s WALL (      11 calls)

     Called by c_bands:
     init_us_2    :      0.04s CPU      0.04s WALL (     800 calls)
     cegterg      :      0.87s CPU      0.88s WALL (     352 calls)

     Called by sum_band:
     sum_band:bec :      0.00s CPU      0.00s WALL (     352 calls)
     addusdens    :      0.04s CPU      0.04s WALL (      11 calls)

     Called by *egterg:
     h_psi        :      0.57s CPU      0.58s WALL (    1080 calls)
     s_psi        :      0.04s CPU      0.04s WALL (    1080 calls)
     g_psi        :      0.01s CPU      0.01s WALL (     696 calls)
     cdiaghg      :      0.20s CPU      0.19s WALL (    1048 calls)

     Called by h_psi:
     h_psi:pot    :      0.56s CPU      0.58s WALL (    1080 calls)
     h_psi:calbec :      0.03s CPU      0.04s WALL (    1080 calls)
     vloc_psi     :      0.48s CPU      0.49s WALL (    1080 calls)
     add_vuspsi   :      0.05s CPU      0.04s WALL (    1080 calls)

     General routines
     calbec       :      0.07s CPU      0.06s WALL (    1592 calls)
     fft          :      0.01s CPU      0.02s WALL (     180 calls)
     ffts         :      0.00s CPU      0.00s WALL (      23 calls)
     fftw         :      0.46s CPU      0.47s WALL (   22052 calls)
     interpolate  :      0.00s CPU      0.00s WALL (      12 calls)

     Parallel routines

     PWSCF        :     5.18s CPU         5.26s WALL


   This run was terminated on:   2:51:53  20Oct2019            

=------------------------------------------------------------------------------=
   JOB DONE.
=------------------------------------------------------------------------------=
