
     Program PWSCF v.6.3 starts on 22Oct2019 at 19: 3: 2 

     This program is part of the open-source Quantum ESPRESSO suite
     for quantum simulation of materials; please cite
         "P. Giannozzi et al., J. Phys.:Condens. Matter 21 395502 (2009);
         "P. Giannozzi et al., J. Phys.:Condens. Matter 29 465901 (2017);
          URL http://www.quantum-espresso.org", 
     in publications or presentations arising from this work. More details at
     http://www.quantum-espresso.org/quote

     Parallel version (MPI & OpenMP), running on      20 processor cores
     Number of MPI processes:                20
     Threads/MPI process:                     1

     MPI processes distributed on     1 nodes
     R & G space division:  proc/nbgrp/npool/nimage =      20
     Reading input from /rds/homes/b/bxp912/jobs/20191022_test/wd/runpwscf/file_10061.in
Warning: card &IONS ignored
Warning: card ION_DYNAMICS = 'BFGS', ignored
Warning: card / ignored
Warning: card &CELL ignored
Warning: card CELL_DYNAMICS = 'BFGS', ignored
Warning: card CELL_FACTOR = 2.0, ignored
Warning: card PRESS = 0.0, ignored
Warning: card / ignored

     Current dimensions of program PWSCF are:
     Max number of different atomic species (ntypx) = 10
     Max number of k-points (npk) =  40000
     Max angular momentum in pseudopotentials (lmaxx) =  3
     Message from routine read_upf::
     Pseudo file /rds/homes/b/bxp912/pp/Al.pbe-nl-kjpaw_psl.1.0.0.UPF has been successfully fixed on the fly.
To avoid this message in the future you can permanently fix 
 your pseudo files following instructions given in: 
https://gitlab.com/QEF/q-e/blob/master/upftools/how_to_fix_upf.md
               file Al.pbe-nl-kjpaw_psl.1.0.0.UPF: wavefunction(s)  3S 3P renormalized

     Subspace diagonalization in iterative solution of the eigenvalue problem:
     a serial algorithm will be used

 
     Parallelization info
     --------------------
     sticks:   dense  smooth     PW     G-vecs:    dense   smooth      PW
     Min           6       6      4                   56       56      34
     Max           8       8      6                   60       60      37
     Sum         137     137     97                 1141     1141     691
 


     bravais-lattice index     =            0
     lattice parameter (alat)  =       4.0400  a.u.
     unit-cell volume          =      65.9393 (a.u.)^3
     number of atoms/cell      =            4
     number of atomic types    =            1
     number of electrons       =        12.00
     number of Kohn-Sham states=           10
     kinetic-energy cutoff     =      55.0000  Ry
     charge density cutoff     =     100.0000  Ry
     convergence threshold     =      1.0E-06
     mixing beta               =       0.1000
     number of iterations used =           10  TF        mixing
     Exchange-correlation      = SLA PW PBX PBC ( 1  4  3  4 0 0)

     celldm(1)=   4.040000  celldm(2)=   0.000000  celldm(3)=   0.000000
     celldm(4)=   0.000000  celldm(5)=   0.000000  celldm(6)=   0.000000

     crystal axes: (cart. coord. in units of alat)
               a(1) = (   1.000000   0.000000   0.000000 )  
               a(2) = (   0.000000   1.000000   0.000000 )  
               a(3) = (   0.000000   0.000000   1.000000 )  

     reciprocal axes: (cart. coord. in units 2 pi/alat)
               b(1) = (  1.000000  0.000000  0.000000 )  
               b(2) = (  0.000000  1.000000  0.000000 )  
               b(3) = (  0.000000  0.000000  1.000000 )  


     PseudoPot. # 1 for Al read from file:
     /rds/homes/b/bxp912/pp/Al.pbe-nl-kjpaw_psl.1.0.0.UPF
     MD5 check sum: 339dbea23cf3ab9a065ad45c0f9085d7
     Pseudo is Projector augmented-wave + core cor, Zval =  3.0
     Generated using "atomic" code by A. Dal Corso v.5.1
     Shape of augmentation charge: PSQ
     Using radial grid of 1135 points,  4 beta functions with: 
                l(1) =   0
                l(2) =   0
                l(3) =   1
                l(4) =   1
     Q(r) pseudized with 0 coefficients 


     atomic species   valence    mass     pseudopotential
        Al             3.00    26.98200     Al( 1.00)

     No symmetry found



   Cartesian axes

     site n.     atom                  positions (alat units)
         1           Al  tau(   1) = (  -0.0001235   0.0000359   0.0002572  )
         2           Al  tau(   2) = (   0.5003009   0.4992819   0.0002658  )
         3           Al  tau(   3) = (   0.4996490   0.0001153   0.5011170  )
         4           Al  tau(   4) = (  -0.0000756   0.5008267   0.5006943  )

     number of k points=    32  Marzari-Vanderbilt smearing, width (Ry)=  0.0200
                       cart. coord. in units 2pi/alat
        k(    1) = (   0.1250000   0.1250000   0.1250000), wk =   0.0625000
        k(    2) = (   0.1250000   0.1250000   0.3750000), wk =   0.0625000
        k(    3) = (   0.1250000   0.3750000   0.3750000), wk =   0.0625000
        k(    4) = (   0.3750000   0.3750000   0.3750000), wk =   0.0625000
        k(    5) = (  -0.1250000  -0.1250000   0.1250000), wk =   0.0625000
        k(    6) = (  -0.1250000   0.1250000  -0.1250000), wk =   0.0625000
        k(    7) = (   0.1250000  -0.1250000  -0.1250000), wk =   0.0625000
        k(    8) = (  -0.1250000  -0.1250000   0.3750000), wk =   0.0625000
        k(    9) = (  -0.1250000   0.1250000  -0.3750000), wk =   0.0625000
        k(   10) = (   0.1250000  -0.1250000  -0.3750000), wk =   0.0625000
        k(   11) = (   0.3750000  -0.1250000   0.1250000), wk =   0.0625000
        k(   12) = (  -0.3750000  -0.1250000  -0.1250000), wk =   0.0625000
        k(   13) = (   0.3750000   0.1250000  -0.1250000), wk =   0.0625000
        k(   14) = (  -0.3750000   0.1250000   0.1250000), wk =   0.0625000
        k(   15) = (  -0.1250000   0.3750000   0.1250000), wk =   0.0625000
        k(   16) = (  -0.1250000  -0.3750000  -0.1250000), wk =   0.0625000
        k(   17) = (   0.1250000   0.3750000  -0.1250000), wk =   0.0625000
        k(   18) = (   0.1250000  -0.3750000   0.1250000), wk =   0.0625000
        k(   19) = (  -0.1250000  -0.3750000   0.3750000), wk =   0.0625000
        k(   20) = (  -0.1250000   0.3750000  -0.3750000), wk =   0.0625000
        k(   21) = (   0.1250000  -0.3750000  -0.3750000), wk =   0.0625000
        k(   22) = (   0.3750000   0.1250000  -0.3750000), wk =   0.0625000
        k(   23) = (  -0.3750000  -0.1250000  -0.3750000), wk =   0.0625000
        k(   24) = (   0.3750000  -0.1250000   0.3750000), wk =   0.0625000
        k(   25) = (  -0.3750000   0.1250000   0.3750000), wk =   0.0625000
        k(   26) = (   0.3750000  -0.3750000   0.1250000), wk =   0.0625000
        k(   27) = (  -0.3750000  -0.3750000  -0.1250000), wk =   0.0625000
        k(   28) = (   0.3750000   0.3750000  -0.1250000), wk =   0.0625000
        k(   29) = (  -0.3750000   0.3750000   0.1250000), wk =   0.0625000
        k(   30) = (  -0.3750000  -0.3750000   0.3750000), wk =   0.0625000
        k(   31) = (  -0.3750000   0.3750000  -0.3750000), wk =   0.0625000
        k(   32) = (   0.3750000  -0.3750000  -0.3750000), wk =   0.0625000

     Dense  grid:     1141 G-vectors     FFT dimensions: (  15,  15,  15)

     Estimated max dynamical RAM per process >       0.43 MB

     Estimated total dynamical RAM >       8.61 MB

     Initial potential from superposition of free atoms

     starting charge   11.99084, renormalised to   12.00000
     Starting wfcs are   16 randomized atomic wfcs
     Checking if some PAW data can be deallocated... 

     total cpu time spent up to now is        0.6 secs

     Self-consistent Calculation

     iteration #  1     ecut=    55.00 Ry     beta= 0.10
     Davidson diagonalization with overlap
     ethr =  1.00E-02,  avg # of iterations =  4.9

     total cpu time spent up to now is        0.8 secs

     total energy              =    -141.65193394 Ry
     Harris-Foulkes estimate   =    -141.80616926 Ry
     estimated scf accuracy    <       0.18098616 Ry

     iteration #  2     ecut=    55.00 Ry     beta= 0.10
     Davidson diagonalization with overlap
     ethr =  1.51E-03,  avg # of iterations =  1.0

     total cpu time spent up to now is        0.9 secs

     total energy              =    -141.16258339 Ry
     Harris-Foulkes estimate   =    -141.65464068 Ry
     estimated scf accuracy    <       0.15228324 Ry

     iteration #  3     ecut=    55.00 Ry     beta= 0.10
     Davidson diagonalization with overlap
     ethr =  1.27E-03,  avg # of iterations =  2.0

     total cpu time spent up to now is        1.1 secs

     total energy              =    -141.24455754 Ry
     Harris-Foulkes estimate   =    -141.25873691 Ry
     estimated scf accuracy    <       0.01612327 Ry

     iteration #  4     ecut=    55.00 Ry     beta= 0.10
     Davidson diagonalization with overlap
     ethr =  1.34E-04,  avg # of iterations =  1.0

     total cpu time spent up to now is        1.1 secs

     total energy              =    -141.24082576 Ry
     Harris-Foulkes estimate   =    -141.24502174 Ry
     estimated scf accuracy    <       0.01273524 Ry

     iteration #  5     ecut=    55.00 Ry     beta= 0.10
     Davidson diagonalization with overlap
     ethr =  1.06E-04,  avg # of iterations =  1.0

     total cpu time spent up to now is        1.2 secs

     total energy              =    -141.24305235 Ry
     Harris-Foulkes estimate   =    -141.24194718 Ry
     estimated scf accuracy    <       0.00072949 Ry

     iteration #  6     ecut=    55.00 Ry     beta= 0.10
     Davidson diagonalization with overlap
     ethr =  6.08E-06,  avg # of iterations =  2.8

     total cpu time spent up to now is        1.4 secs

     total energy              =    -141.24324813 Ry
     Harris-Foulkes estimate   =    -141.24332647 Ry
     estimated scf accuracy    <       0.00008101 Ry

     iteration #  7     ecut=    55.00 Ry     beta= 0.10
     Davidson diagonalization with overlap
     ethr =  6.75E-07,  avg # of iterations =  1.2

     total cpu time spent up to now is        1.4 secs

     total energy              =    -141.24218178 Ry
     Harris-Foulkes estimate   =    -141.24324922 Ry
     estimated scf accuracy    <       0.00006997 Ry

     iteration #  8     ecut=    55.00 Ry     beta= 0.10
     Davidson diagonalization with overlap
     ethr =  5.83E-07,  avg # of iterations =  2.9

     total cpu time spent up to now is        1.6 secs

     total energy              =    -141.24225981 Ry
     Harris-Foulkes estimate   =    -141.24225101 Ry
     estimated scf accuracy    <       0.00000646 Ry

     iteration #  9     ecut=    55.00 Ry     beta= 0.10
     Davidson diagonalization with overlap
     ethr =  5.38E-08,  avg # of iterations =  1.0

     total cpu time spent up to now is        1.7 secs

     total energy              =    -141.24217826 Ry
     Harris-Foulkes estimate   =    -141.24226006 Ry
     estimated scf accuracy    <       0.00000925 Ry

     iteration # 10     ecut=    55.00 Ry     beta= 0.10
     Davidson diagonalization with overlap
     ethr =  5.38E-08,  avg # of iterations =  3.0

     total cpu time spent up to now is        1.8 secs

     total energy              =    -141.24218757 Ry
     Harris-Foulkes estimate   =    -141.24218787 Ry
     estimated scf accuracy    <       0.00000271 Ry

     iteration # 11     ecut=    55.00 Ry     beta= 0.10
     Davidson diagonalization with overlap
     ethr =  2.26E-08,  avg # of iterations =  1.0

     total cpu time spent up to now is        1.9 secs

     total energy              =    -141.24218691 Ry
     Harris-Foulkes estimate   =    -141.24218758 Ry
     estimated scf accuracy    <       0.00000226 Ry

     iteration # 12     ecut=    55.00 Ry     beta= 0.10
     Davidson diagonalization with overlap
     ethr =  1.88E-08,  avg # of iterations =  1.0

     total cpu time spent up to now is        2.0 secs

     End of self-consistent calculation

          k = 0.1250 0.1250 0.1250 (   452 PWs)   bands (ev):

    30.9166  41.4399  41.4579  41.4778  52.4307  52.4510  52.4711  54.9340
    54.9439  54.9540

          k = 0.1250 0.1250 0.3750 (   457 PWs)   bands (ev):

    34.4093  39.0157  43.9450  43.9639  51.8140  51.8313  54.8801  54.8887
    55.6940  61.5189

          k = 0.1250 0.3750 0.3750 (   451 PWs)   bands (ev):

    37.4246  41.6595  41.6963  44.5517  50.4964  52.9089  52.9581  57.0489
    57.5706  60.7351

          k = 0.3750 0.3750 0.3750 (   459 PWs)   bands (ev):

    39.8900  43.9790  44.0165  44.0547  47.7774  47.8188  47.8604  51.6529
    66.9751  66.9786

          k =-0.1250-0.1250 0.1250 (   452 PWs)   bands (ev):

    30.9166  41.4437  41.4582  41.4737  52.4349  52.4509  52.4669  54.9361
    54.9439  54.9518

          k =-0.1250 0.1250-0.1250 (   452 PWs)   bands (ev):

    30.9166  41.4473  41.4589  41.4694  52.4390  52.4509  52.4627  54.9382
    54.9439  54.9498

          k = 0.1250-0.1250-0.1250 (   452 PWs)   bands (ev):

    30.9166  41.4454  41.4584  41.4717  52.4369  52.4510  52.4649  54.9370
    54.9439  54.9509

          k =-0.1250-0.1250 0.3750 (   457 PWs)   bands (ev):

    34.4093  39.0157  43.9450  43.9638  51.8140  51.8313  54.8801  54.8888
    55.6938  61.5190

          k =-0.1250 0.1250-0.3750 (   457 PWs)   bands (ev):

    34.4093  39.0157  43.9501  43.9588  51.8187  51.8266  54.8824  54.8864
    55.6939  61.5190

          k = 0.1250-0.1250-0.3750 (   457 PWs)   bands (ev):

    34.4093  39.0157  43.9501  43.9588  51.8187  51.8266  54.8824  54.8864
    55.6941  61.5188

          k = 0.3750-0.1250 0.1250 (   457 PWs)   bands (ev):

    34.4094  39.0156  43.9501  43.9588  51.8185  51.8265  54.8826  54.8866
    55.6940  61.5192

          k =-0.3750-0.1250-0.1250 (   457 PWs)   bands (ev):

    34.4094  39.0156  43.9465  43.9625  51.8154  51.8301  54.8804  54.8878
    55.6946  61.5191

          k = 0.3750 0.1250-0.1250 (   457 PWs)   bands (ev):

    34.4094  39.0156  43.9501  43.9589  51.8184  51.8265  54.8826  54.8866
    55.6941  61.5191

          k =-0.3750 0.1250 0.1250 (   457 PWs)   bands (ev):

    34.4094  39.0156  43.9464  43.9625  51.8154  51.8301  54.8805  54.8878
    55.6942  61.5191

          k =-0.1250 0.3750 0.1250 (   457 PWs)   bands (ev):

    34.4094  39.0155  43.9534  43.9558  51.8216  51.8238  54.8838  54.8849
    55.6939  61.5190

          k =-0.1250-0.3750-0.1250 (   457 PWs)   bands (ev):

    34.4094  39.0155  43.9499  43.9594  51.8182  51.8269  54.8822  54.8866
    55.6941  61.5191

          k = 0.1250 0.3750-0.1250 (   457 PWs)   bands (ev):

    34.4094  39.0155  43.9534  43.9559  51.8215  51.8237  54.8836  54.8848
    55.6943  61.5191

          k = 0.1250-0.3750 0.1250 (   457 PWs)   bands (ev):

    34.4094  39.0156  43.9499  43.9593  51.8183  51.8269  54.8822  54.8866
    55.6939  61.5191

          k =-0.1250-0.3750 0.3750 (   451 PWs)   bands (ev):

    37.4245  41.6679  41.6880  44.5515  50.4966  52.9200  52.9468  57.0483
    57.5715  60.7402

          k =-0.1250 0.3750-0.3750 (   451 PWs)   bands (ev):

    37.4245  41.6679  41.6880  44.5516  50.4965  52.9200  52.9468  57.0479
    57.5720  60.7403

          k = 0.1250-0.3750-0.3750 (   451 PWs)   bands (ev):

    37.4245  41.6595  41.6963  44.5517  50.4964  52.9089  52.9581  57.0485
    57.5708  60.7363

          k = 0.3750 0.1250-0.3750 (   451 PWs)   bands (ev):

    37.4245  41.6751  41.6807  44.5516  50.4964  52.9299  52.9373  57.0489
    57.5708  60.7397

          k =-0.3750-0.1250-0.3750 (   451 PWs)   bands (ev):

    37.4245  41.6671  41.6887  44.5515  50.4966  52.9192  52.9481  57.0491
    57.5704  60.7402

          k = 0.3750-0.1250 0.3750 (   451 PWs)   bands (ev):

    37.4245  41.6671  41.6888  44.5515  50.4965  52.9191  52.9479  57.0493
    57.5705  60.7407

          k =-0.3750 0.1250 0.3750 (   451 PWs)   bands (ev):

    37.4245  41.6751  41.6807  44.5516  50.4965  52.9299  52.9374  57.0486
    57.5708  60.7394

          k = 0.3750-0.3750 0.1250 (   451 PWs)   bands (ev):

    37.4246  41.6679  41.6879  44.5516  50.4962  52.9202  52.9467  57.0492
    57.5706  60.7371

          k =-0.3750-0.3750-0.1250 (   451 PWs)   bands (ev):

    37.4246  41.6562  41.6996  44.5515  50.4966  52.9046  52.9624  57.0471
    57.5725  60.7357

          k = 0.3750 0.3750-0.1250 (   451 PWs)   bands (ev):

    37.4246  41.6562  41.6996  44.5515  50.4964  52.9045  52.9623  57.0492
    57.5705  60.7328

          k =-0.3750 0.3750 0.1250 (   451 PWs)   bands (ev):

    37.4246  41.6679  41.6878  44.5516  50.4965  52.9203  52.9468  57.0445
    57.5751  60.7375

          k =-0.3750-0.3750 0.3750 (   459 PWs)   bands (ev):

    39.8900  43.9868  44.0166  44.0466  47.7861  47.8188  47.8517  51.6530
    66.9764  66.9802

          k =-0.3750 0.3750-0.3750 (   459 PWs)   bands (ev):

    39.8899  43.9944  44.0169  44.0387  47.7946  47.8188  47.8431  51.6531
    66.9762  66.9784

          k = 0.3750-0.3750-0.3750 (   459 PWs)   bands (ev):

    39.8900  43.9904  44.0166  44.0429  47.7901  47.8189  47.8477  51.6529
    66.9759  66.9794

     the Fermi energy is    52.6629 ev

!    total energy              =    -141.24218659 Ry
     Harris-Foulkes estimate   =    -141.24218695 Ry
     estimated scf accuracy    <       0.00000033 Ry

     total all-electron energy =     -1925.813314 Ry

     The total energy is the sum of the following terms:

     one-electron contribution =      58.67353283 Ry
     hartree contribution      =       0.21199271 Ry
     xc contribution           =     -17.28555557 Ry
     ewald contribution        =     -40.85514764 Ry
     one-center paw contrib.   =    -141.98639358 Ry
     smearing contrib. (-TS)   =      -0.00061535 Ry

     convergence has been achieved in  12 iterations

     Forces acting on atoms (cartesian axes, Ry/au):

     atom    1 type  1   force =     0.00200529   -0.00038046    0.01644122
     atom    2 type  1   force =    -0.00322723    0.00370788    0.01641427
     atom    3 type  1   force =    -0.00056643   -0.00070759   -0.01728771
     atom    4 type  1   force =     0.00178838   -0.00261982   -0.01556778

     Total force =     0.033469     Total SCF correction =     0.000009


     Computing stress (Cartesian axis) and pressure

          total   stress  (Ry/bohr**3)                   (kbar)     P=59673.49
   0.40565757   0.00000119   0.00000085      59674.28      0.17      0.12
   0.00000119   0.40564644  -0.00000112          0.17  59672.64     -0.16
   0.00000085  -0.00000112   0.40565252          0.12     -0.16  59673.54


     Writing output data file fe_scf_fcc_2.save/
 
     init_run     :      0.07s CPU      0.12s WALL (       1 calls)
     electrons    :      1.18s CPU      1.31s WALL (       1 calls)
     forces       :      0.01s CPU      0.01s WALL (       1 calls)
     stress       :      0.01s CPU      0.01s WALL (       1 calls)

     Called by init_run:
     wfcinit      :      0.04s CPU      0.05s WALL (       1 calls)
     potinit      :      0.01s CPU      0.02s WALL (       1 calls)
     hinit0       :      0.01s CPU      0.06s WALL (       1 calls)

     Called by electrons:
     c_bands      :      0.88s CPU      0.98s WALL (      12 calls)
     sum_band     :      0.14s CPU      0.15s WALL (      12 calls)
     v_of_rho     :      0.00s CPU      0.01s WALL (      13 calls)
     newd         :      0.00s CPU      0.00s WALL (      13 calls)
     PAW_pot      :      0.15s CPU      0.17s WALL (      13 calls)
     mix_rho      :      0.00s CPU      0.00s WALL (      12 calls)

     Called by c_bands:
     init_us_2    :      0.01s CPU      0.01s WALL (     864 calls)
     cegterg      :      0.85s CPU      0.95s WALL (     384 calls)

     Called by sum_band:
     sum_band:bec :      0.00s CPU      0.00s WALL (     384 calls)
     addusdens    :      0.00s CPU      0.00s WALL (      12 calls)

     Called by *egterg:
     h_psi        :      0.60s CPU      0.67s WALL (    1144 calls)
     s_psi        :      0.01s CPU      0.01s WALL (    1144 calls)
     g_psi        :      0.00s CPU      0.00s WALL (     728 calls)
     cdiaghg      :      0.18s CPU      0.20s WALL (    1112 calls)

     Called by h_psi:
     h_psi:pot    :      0.60s CPU      0.67s WALL (    1144 calls)
     h_psi:calbec :      0.06s CPU      0.06s WALL (    1144 calls)
     vloc_psi     :      0.52s CPU      0.59s WALL (    1144 calls)
     add_vuspsi   :      0.01s CPU      0.01s WALL (    1144 calls)

     General routines
     calbec       :      0.08s CPU      0.09s WALL (    1688 calls)
     fft          :      0.01s CPU      0.06s WALL (     169 calls)
     ffts         :      0.00s CPU      0.00s WALL (      12 calls)
     fftw         :      0.59s CPU      0.66s WALL (   23860 calls)
 
     Parallel routines
     fft_scatt_xy :      0.04s CPU      0.04s WALL (   24041 calls)
     fft_scatt_yz :      0.47s CPU      0.52s WALL (   24041 calls)
 
     PWSCF        :     1.86s CPU         2.21s WALL

 
   This run was terminated on:  19: 3: 5  22Oct2019            

=------------------------------------------------------------------------------=
   JOB DONE.
=------------------------------------------------------------------------------=
