
     Program PWSCF v.6.3 starts on 22Oct2019 at 19: 3:11 

     This program is part of the open-source Quantum ESPRESSO suite
     for quantum simulation of materials; please cite
         "P. Giannozzi et al., J. Phys.:Condens. Matter 21 395502 (2009);
         "P. Giannozzi et al., J. Phys.:Condens. Matter 29 465901 (2017);
          URL http://www.quantum-espresso.org", 
     in publications or presentations arising from this work. More details at
     http://www.quantum-espresso.org/quote

     Parallel version (MPI & OpenMP), running on      20 processor cores
     Number of MPI processes:                20
     Threads/MPI process:                     1

     MPI processes distributed on     1 nodes
     R & G space division:  proc/nbgrp/npool/nimage =      20
     Reading input from /rds/homes/b/bxp912/jobs/20191022_test/wd/runpwscf/file_10064.in
Warning: card &IONS ignored
Warning: card ION_DYNAMICS = 'BFGS', ignored
Warning: card / ignored
Warning: card &CELL ignored
Warning: card CELL_DYNAMICS = 'BFGS', ignored
Warning: card CELL_FACTOR = 2.0, ignored
Warning: card PRESS = 0.0, ignored
Warning: card / ignored

     Current dimensions of program PWSCF are:
     Max number of different atomic species (ntypx) = 10
     Max number of k-points (npk) =  40000
     Max angular momentum in pseudopotentials (lmaxx) =  3
     Message from routine read_upf::
     Pseudo file /rds/homes/b/bxp912/pp/Al.pbe-nl-kjpaw_psl.1.0.0.UPF has been successfully fixed on the fly.
To avoid this message in the future you can permanently fix 
 your pseudo files following instructions given in: 
https://gitlab.com/QEF/q-e/blob/master/upftools/how_to_fix_upf.md
               file Al.pbe-nl-kjpaw_psl.1.0.0.UPF: wavefunction(s)  3S 3P renormalized

     Subspace diagonalization in iterative solution of the eigenvalue problem:
     a serial algorithm will be used

 
     Parallelization info
     --------------------
     sticks:   dense  smooth     PW     G-vecs:    dense   smooth      PW
     Min           6       6      5                   56       56      45
     Max           8       8      6                   60       60      48
     Sum         137     137    113                 1141     1141     925
 


     bravais-lattice index     =            0
     lattice parameter (alat)  =       4.0400  a.u.
     unit-cell volume          =      65.9393 (a.u.)^3
     number of atoms/cell      =            4
     number of atomic types    =            1
     number of electrons       =        12.00
     number of Kohn-Sham states=           10
     kinetic-energy cutoff     =      70.0000  Ry
     charge density cutoff     =     100.0000  Ry
     convergence threshold     =      1.0E-06
     mixing beta               =       0.1000
     number of iterations used =           10  TF        mixing
     Exchange-correlation      = SLA PW PBX PBC ( 1  4  3  4 0 0)

     celldm(1)=   4.040000  celldm(2)=   0.000000  celldm(3)=   0.000000
     celldm(4)=   0.000000  celldm(5)=   0.000000  celldm(6)=   0.000000

     crystal axes: (cart. coord. in units of alat)
               a(1) = (   1.000000   0.000000   0.000000 )  
               a(2) = (   0.000000   1.000000   0.000000 )  
               a(3) = (   0.000000   0.000000   1.000000 )  

     reciprocal axes: (cart. coord. in units 2 pi/alat)
               b(1) = (  1.000000  0.000000  0.000000 )  
               b(2) = (  0.000000  1.000000  0.000000 )  
               b(3) = (  0.000000  0.000000  1.000000 )  


     PseudoPot. # 1 for Al read from file:
     /rds/homes/b/bxp912/pp/Al.pbe-nl-kjpaw_psl.1.0.0.UPF
     MD5 check sum: 339dbea23cf3ab9a065ad45c0f9085d7
     Pseudo is Projector augmented-wave + core cor, Zval =  3.0
     Generated using "atomic" code by A. Dal Corso v.5.1
     Shape of augmentation charge: PSQ
     Using radial grid of 1135 points,  4 beta functions with: 
                l(1) =   0
                l(2) =   0
                l(3) =   1
                l(4) =   1
     Q(r) pseudized with 0 coefficients 


     atomic species   valence    mass     pseudopotential
        Al             3.00    26.98200     Al( 1.00)

     No symmetry found



   Cartesian axes

     site n.     atom                  positions (alat units)
         1           Al  tau(   1) = (  -0.0001235   0.0000359   0.0002572  )
         2           Al  tau(   2) = (   0.5003009   0.4992819   0.0002658  )
         3           Al  tau(   3) = (   0.4996490   0.0001153   0.5011170  )
         4           Al  tau(   4) = (  -0.0000756   0.5008267   0.5006943  )

     number of k points=    32  Marzari-Vanderbilt smearing, width (Ry)=  0.0200
                       cart. coord. in units 2pi/alat
        k(    1) = (   0.1250000   0.1250000   0.1250000), wk =   0.0625000
        k(    2) = (   0.1250000   0.1250000   0.3750000), wk =   0.0625000
        k(    3) = (   0.1250000   0.3750000   0.3750000), wk =   0.0625000
        k(    4) = (   0.3750000   0.3750000   0.3750000), wk =   0.0625000
        k(    5) = (  -0.1250000  -0.1250000   0.1250000), wk =   0.0625000
        k(    6) = (  -0.1250000   0.1250000  -0.1250000), wk =   0.0625000
        k(    7) = (   0.1250000  -0.1250000  -0.1250000), wk =   0.0625000
        k(    8) = (  -0.1250000  -0.1250000   0.3750000), wk =   0.0625000
        k(    9) = (  -0.1250000   0.1250000  -0.3750000), wk =   0.0625000
        k(   10) = (   0.1250000  -0.1250000  -0.3750000), wk =   0.0625000
        k(   11) = (   0.3750000  -0.1250000   0.1250000), wk =   0.0625000
        k(   12) = (  -0.3750000  -0.1250000  -0.1250000), wk =   0.0625000
        k(   13) = (   0.3750000   0.1250000  -0.1250000), wk =   0.0625000
        k(   14) = (  -0.3750000   0.1250000   0.1250000), wk =   0.0625000
        k(   15) = (  -0.1250000   0.3750000   0.1250000), wk =   0.0625000
        k(   16) = (  -0.1250000  -0.3750000  -0.1250000), wk =   0.0625000
        k(   17) = (   0.1250000   0.3750000  -0.1250000), wk =   0.0625000
        k(   18) = (   0.1250000  -0.3750000   0.1250000), wk =   0.0625000
        k(   19) = (  -0.1250000  -0.3750000   0.3750000), wk =   0.0625000
        k(   20) = (  -0.1250000   0.3750000  -0.3750000), wk =   0.0625000
        k(   21) = (   0.1250000  -0.3750000  -0.3750000), wk =   0.0625000
        k(   22) = (   0.3750000   0.1250000  -0.3750000), wk =   0.0625000
        k(   23) = (  -0.3750000  -0.1250000  -0.3750000), wk =   0.0625000
        k(   24) = (   0.3750000  -0.1250000   0.3750000), wk =   0.0625000
        k(   25) = (  -0.3750000   0.1250000   0.3750000), wk =   0.0625000
        k(   26) = (   0.3750000  -0.3750000   0.1250000), wk =   0.0625000
        k(   27) = (  -0.3750000  -0.3750000  -0.1250000), wk =   0.0625000
        k(   28) = (   0.3750000   0.3750000  -0.1250000), wk =   0.0625000
        k(   29) = (  -0.3750000   0.3750000   0.1250000), wk =   0.0625000
        k(   30) = (  -0.3750000  -0.3750000   0.3750000), wk =   0.0625000
        k(   31) = (  -0.3750000   0.3750000  -0.3750000), wk =   0.0625000
        k(   32) = (   0.3750000  -0.3750000  -0.3750000), wk =   0.0625000

     Dense  grid:     1141 G-vectors     FFT dimensions: (  15,  15,  15)

     Estimated max dynamical RAM per process >       0.50 MB

     Estimated total dynamical RAM >      10.10 MB

     Initial potential from superposition of free atoms

     starting charge   11.99084, renormalised to   12.00000
     Starting wfcs are   16 randomized atomic wfcs
     Checking if some PAW data can be deallocated... 

     total cpu time spent up to now is        0.7 secs

     Self-consistent Calculation

     iteration #  1     ecut=    70.00 Ry     beta= 0.10
     Davidson diagonalization with overlap
     ethr =  1.00E-02,  avg # of iterations =  4.9

     total cpu time spent up to now is        0.9 secs

     total energy              =    -141.65289825 Ry
     Harris-Foulkes estimate   =    -141.80718920 Ry
     estimated scf accuracy    <       0.18118916 Ry

     iteration #  2     ecut=    70.00 Ry     beta= 0.10
     Davidson diagonalization with overlap
     ethr =  1.51E-03,  avg # of iterations =  1.0

     total cpu time spent up to now is        1.0 secs

     total energy              =    -141.16259503 Ry
     Harris-Foulkes estimate   =    -141.65543272 Ry
     estimated scf accuracy    <       0.15209653 Ry

     iteration #  3     ecut=    70.00 Ry     beta= 0.10
     Davidson diagonalization with overlap
     ethr =  1.27E-03,  avg # of iterations =  2.0

     total cpu time spent up to now is        1.1 secs

     total energy              =    -141.24335756 Ry
     Harris-Foulkes estimate   =    -141.25566618 Ry
     estimated scf accuracy    <       0.01563485 Ry

     iteration #  4     ecut=    70.00 Ry     beta= 0.10
     Davidson diagonalization with overlap
     ethr =  1.30E-04,  avg # of iterations =  1.0

     total cpu time spent up to now is        1.2 secs

     total energy              =    -141.24156036 Ry
     Harris-Foulkes estimate   =    -141.24380261 Ry
     estimated scf accuracy    <       0.01243013 Ry

     iteration #  5     ecut=    70.00 Ry     beta= 0.10
     Davidson diagonalization with overlap
     ethr =  1.04E-04,  avg # of iterations =  1.0

     total cpu time spent up to now is        1.3 secs

     total energy              =    -141.24352051 Ry
     Harris-Foulkes estimate   =    -141.24264089 Ry
     estimated scf accuracy    <       0.00073813 Ry

     iteration #  6     ecut=    70.00 Ry     beta= 0.10
     Davidson diagonalization with overlap
     ethr =  6.15E-06,  avg # of iterations =  2.8

     total cpu time spent up to now is        1.4 secs

     total energy              =    -141.24377373 Ry
     Harris-Foulkes estimate   =    -141.24377503 Ry
     estimated scf accuracy    <       0.00010604 Ry

     iteration #  7     ecut=    70.00 Ry     beta= 0.10
     Davidson diagonalization with overlap
     ethr =  8.84E-07,  avg # of iterations =  1.1

     total cpu time spent up to now is        1.5 secs

     total energy              =    -141.24280946 Ry
     Harris-Foulkes estimate   =    -141.24377494 Ry
     estimated scf accuracy    <       0.00009287 Ry

     iteration #  8     ecut=    70.00 Ry     beta= 0.10
     Davidson diagonalization with overlap
     ethr =  7.74E-07,  avg # of iterations =  2.6

     total cpu time spent up to now is        1.6 secs

     total energy              =    -141.24294835 Ry
     Harris-Foulkes estimate   =    -141.24288628 Ry
     estimated scf accuracy    <       0.00001949 Ry

     iteration #  9     ecut=    70.00 Ry     beta= 0.10
     Davidson diagonalization with overlap
     ethr =  1.62E-07,  avg # of iterations =  2.0

     total cpu time spent up to now is        1.8 secs

     total energy              =    -141.24284915 Ry
     Harris-Foulkes estimate   =    -141.24295122 Ry
     estimated scf accuracy    <       0.00000807 Ry

     iteration # 10     ecut=    70.00 Ry     beta= 0.10
     Davidson diagonalization with overlap
     ethr =  6.73E-08,  avg # of iterations =  3.0

     total cpu time spent up to now is        1.9 secs

     End of self-consistent calculation

          k = 0.1250 0.1250 0.1250 (   666 PWs)   bands (ev):

    30.9148  41.4374  41.4554  41.4752  52.4297  52.4500  52.4701  54.9330
    54.9429  54.9529

          k = 0.1250 0.1250 0.3750 (   655 PWs)   bands (ev):

    34.4078  39.0141  43.9426  43.9614  51.8126  51.8299  54.8788  54.8874
    55.6930  61.5174

          k = 0.1250 0.3750 0.3750 (   646 PWs)   bands (ev):

    37.4231  41.6578  41.6949  44.5499  50.4948  52.9075  52.9566  57.0474
    57.5691  60.7343

          k = 0.3750 0.3750 0.3750 (   657 PWs)   bands (ev):

    39.8887  43.9776  44.0151  44.0533  47.7758  47.8172  47.8588  51.6512
    66.9745  66.9773

          k =-0.1250-0.1250 0.1250 (   666 PWs)   bands (ev):

    30.9148  41.4412  41.4556  41.4711  52.4339  52.4499  52.4659  54.9351
    54.9429  54.9508

          k =-0.1250 0.1250-0.1250 (   666 PWs)   bands (ev):

    30.9148  41.4447  41.4564  41.4668  52.4381  52.4499  52.4617  54.9371
    54.9429  54.9488

          k = 0.1250-0.1250-0.1250 (   666 PWs)   bands (ev):

    30.9148  41.4429  41.4559  41.4692  52.4359  52.4500  52.4639  54.9360
    54.9429  54.9498

          k =-0.1250-0.1250 0.3750 (   655 PWs)   bands (ev):

    34.4078  39.0141  43.9426  43.9614  51.8127  51.8299  54.8788  54.8875
    55.6927  61.5175

          k =-0.1250 0.1250-0.3750 (   655 PWs)   bands (ev):

    34.4078  39.0141  43.9477  43.9563  51.8173  51.8252  54.8811  54.8851
    55.6928  61.5174

          k = 0.1250-0.1250-0.3750 (   655 PWs)   bands (ev):

    34.4078  39.0141  43.9477  43.9564  51.8173  51.8252  54.8811  54.8851
    55.6930  61.5174

          k = 0.3750-0.1250 0.1250 (   655 PWs)   bands (ev):

    34.4078  39.0140  43.9477  43.9564  51.8171  51.8251  54.8813  54.8853
    55.6930  61.5176

          k =-0.3750-0.1250-0.1250 (   655 PWs)   bands (ev):

    34.4078  39.0140  43.9440  43.9601  51.8140  51.8287  54.8791  54.8864
    55.6936  61.5175

          k = 0.3750 0.1250-0.1250 (   655 PWs)   bands (ev):

    34.4078  39.0140  43.9477  43.9564  51.8171  51.8251  54.8813  54.8853
    55.6930  61.5176

          k =-0.3750 0.1250 0.1250 (   655 PWs)   bands (ev):

    34.4078  39.0140  43.9440  43.9600  51.8141  51.8287  54.8792  54.8865
    55.6932  61.5175

          k =-0.1250 0.3750 0.1250 (   655 PWs)   bands (ev):

    34.4078  39.0139  43.9510  43.9534  51.8202  51.8224  54.8824  54.8836
    55.6929  61.5175

          k =-0.1250-0.3750-0.1250 (   655 PWs)   bands (ev):

    34.4078  39.0139  43.9475  43.9569  51.8169  51.8255  54.8810  54.8853
    55.6930  61.5175

          k = 0.1250 0.3750-0.1250 (   655 PWs)   bands (ev):

    34.4078  39.0139  43.9510  43.9534  51.8201  51.8224  54.8823  54.8835
    55.6933  61.5174

          k = 0.1250-0.3750 0.1250 (   655 PWs)   bands (ev):

    34.4078  39.0139  43.9475  43.9569  51.8169  51.8255  54.8809  54.8852
    55.6929  61.5175

          k =-0.1250-0.3750 0.3750 (   646 PWs)   bands (ev):

    37.4231  41.6663  41.6865  44.5497  50.4950  52.9185  52.9453  57.0467
    57.5700  60.7395

          k =-0.1250 0.3750-0.3750 (   646 PWs)   bands (ev):

    37.4231  41.6664  41.6865  44.5498  50.4949  52.9185  52.9453  57.0464
    57.5705  60.7379

          k = 0.1250-0.3750-0.3750 (   646 PWs)   bands (ev):

    37.4231  41.6579  41.6949  44.5499  50.4948  52.9075  52.9566  57.0470
    57.5694  60.7343

          k = 0.3750 0.1250-0.3750 (   646 PWs)   bands (ev):

    37.4231  41.6736  41.6791  44.5498  50.4948  52.9284  52.9358  57.0474
    57.5693  60.7378

          k =-0.3750-0.1250-0.3750 (   646 PWs)   bands (ev):

    37.4231  41.6655  41.6872  44.5496  50.4951  52.9177  52.9465  57.0476
    57.5689  60.7347

          k = 0.3750-0.1250 0.3750 (   646 PWs)   bands (ev):

    37.4231  41.6655  41.6873  44.5497  50.4949  52.9176  52.9464  57.0478
    57.5691  60.7347

          k =-0.3750 0.1250 0.3750 (   646 PWs)   bands (ev):

    37.4231  41.6736  41.6791  44.5498  50.4949  52.9284  52.9359  57.0470
    57.5693  60.7376

          k = 0.3750-0.3750 0.1250 (   646 PWs)   bands (ev):

    37.4231  41.6665  41.6863  44.5498  50.4946  52.9187  52.9452  57.0477
    57.5691  60.7365

          k =-0.3750-0.3750-0.1250 (   646 PWs)   bands (ev):

    37.4232  41.6547  41.6980  44.5497  50.4950  52.9031  52.9608  57.0455
    57.5711  60.7335

          k = 0.3750 0.3750-0.1250 (   646 PWs)   bands (ev):

    37.4232  41.6547  41.6981  44.5497  50.4948  52.9030  52.9608  57.0477
    57.5690  60.7318

          k =-0.3750 0.3750 0.1250 (   646 PWs)   bands (ev):

    37.4231  41.6665  41.6862  44.5498  50.4949  52.9188  52.9453  57.0430
    57.5737  60.7354

          k =-0.3750-0.3750 0.3750 (   657 PWs)   bands (ev):

    39.8886  43.9854  44.0152  44.0452  47.7845  47.8172  47.8501  51.6513
    66.9745  66.9784

          k =-0.3750 0.3750-0.3750 (   657 PWs)   bands (ev):

    39.8886  43.9930  44.0155  44.0373  47.7930  47.8172  47.8415  51.6514
    66.9750  66.9767

          k = 0.3750-0.3750-0.3750 (   657 PWs)   bands (ev):

    39.8886  43.9890  44.0152  44.0415  47.7886  47.8173  47.8461  51.6512
    66.9755  66.9765

     the Fermi energy is    52.6617 ev

!    total energy              =    -141.24285917 Ry
     Harris-Foulkes estimate   =    -141.24285951 Ry
     estimated scf accuracy    <       0.00000083 Ry

     total all-electron energy =     -1925.813987 Ry

     The total energy is the sum of the following terms:

     one-electron contribution =      58.67247340 Ry
     hartree contribution      =       0.21196780 Ry
     xc contribution           =     -17.28521657 Ry
     ewald contribution        =     -40.85514764 Ry
     one-center paw contrib.   =    -141.98631293 Ry
     smearing contrib. (-TS)   =      -0.00062321 Ry

     convergence has been achieved in  10 iterations

     Forces acting on atoms (cartesian axes, Ry/au):

     atom    1 type  1   force =     0.00202241   -0.00041271    0.01637540
     atom    2 type  1   force =    -0.00327385    0.00368688    0.01634842
     atom    3 type  1   force =    -0.00057105   -0.00064492   -0.01726449
     atom    4 type  1   force =     0.00182249   -0.00262924   -0.01545932

     Total force =     0.033347     Total SCF correction =     0.000026


     Computing stress (Cartesian axis) and pressure

          total   stress  (Ry/bohr**3)                   (kbar)     P=59672.85
   0.40565324   0.00000092   0.00000095      59673.64      0.14      0.14
   0.00000092   0.40564232  -0.00000076          0.14  59672.04     -0.11
   0.00000095  -0.00000076   0.40564810          0.14     -0.11  59672.88


     Writing output data file fe_scf_fcc_2.save/
 
     init_run     :      0.11s CPU      0.14s WALL (       1 calls)
     electrons    :      1.10s CPU      1.22s WALL (       1 calls)
     forces       :      0.01s CPU      0.01s WALL (       1 calls)
     stress       :      0.03s CPU      0.03s WALL (       1 calls)

     Called by init_run:
     wfcinit      :      0.04s CPU      0.05s WALL (       1 calls)
     potinit      :      0.01s CPU      0.02s WALL (       1 calls)
     hinit0       :      0.04s CPU      0.06s WALL (       1 calls)

     Called by electrons:
     c_bands      :      0.84s CPU      0.92s WALL (      10 calls)
     sum_band     :      0.12s CPU      0.13s WALL (      10 calls)
     v_of_rho     :      0.00s CPU      0.00s WALL (      11 calls)
     newd         :      0.00s CPU      0.00s WALL (      11 calls)
     PAW_pot      :      0.13s CPU      0.14s WALL (      11 calls)
     mix_rho      :      0.00s CPU      0.00s WALL (      10 calls)

     Called by c_bands:
     init_us_2    :      0.01s CPU      0.01s WALL (     736 calls)
     cegterg      :      0.81s CPU      0.89s WALL (     320 calls)

     Called by sum_band:
     sum_band:bec :      0.00s CPU      0.00s WALL (     320 calls)
     addusdens    :      0.00s CPU      0.00s WALL (      10 calls)

     Called by *egterg:
     h_psi        :      0.56s CPU      0.63s WALL (    1035 calls)
     s_psi        :      0.01s CPU      0.01s WALL (    1035 calls)
     g_psi        :      0.00s CPU      0.00s WALL (     683 calls)
     cdiaghg      :      0.17s CPU      0.19s WALL (    1003 calls)

     Called by h_psi:
     h_psi:pot    :      0.56s CPU      0.62s WALL (    1035 calls)
     h_psi:calbec :      0.06s CPU      0.06s WALL (    1035 calls)
     vloc_psi     :      0.49s CPU      0.55s WALL (    1035 calls)
     add_vuspsi   :      0.01s CPU      0.01s WALL (    1035 calls)

     General routines
     calbec       :      0.10s CPU      0.11s WALL (    1515 calls)
     fft          :      0.04s CPU      0.06s WALL (     147 calls)
     ffts         :      0.00s CPU      0.00s WALL (      10 calls)
     fftw         :      0.55s CPU      0.61s WALL (   20662 calls)
 
     Parallel routines
     fft_scatt_xy :      0.03s CPU      0.04s WALL (   20819 calls)
     fft_scatt_yz :      0.46s CPU      0.53s WALL (   20819 calls)
 
     PWSCF        :     1.84s CPU         2.18s WALL

 
   This run was terminated on:  19: 3:13  22Oct2019            

=------------------------------------------------------------------------------=
   JOB DONE.
=------------------------------------------------------------------------------=
