
     Program PWSCF v.6.3 starts on 20Oct2019 at  2:53:52 

     This program is part of the open-source Quantum ESPRESSO suite
     for quantum simulation of materials; please cite
         "P. Giannozzi et al., J. Phys.:Condens. Matter 21 395502 (2009);
         "P. Giannozzi et al., J. Phys.:Condens. Matter 29 465901 (2017);
          URL http://www.quantum-espresso.org", 
     in publications or presentations arising from this work. More details at
     http://www.quantum-espresso.org/quote

     Parallel version (MPI), running on     1 processors

     MPI processes distributed on     1 nodes
     Reading input from /cloud/Code/python/py_pwscf_converge/src/example/wd/runpwscf/file_10126.in
Warning: card &IONS ignored
Warning: card ION_DYNAMICS = 'BFGS', ignored
Warning: card / ignored
Warning: card &CELL ignored
Warning: card CELL_DYNAMICS = 'BFGS', ignored
Warning: card CELL_FACTOR = 2.0, ignored
Warning: card PRESS = 0.0, ignored
Warning: card / ignored

     Current dimensions of program PWSCF are:
     Max number of different atomic species (ntypx) = 10
     Max number of k-points (npk) =  40000
     Max angular momentum in pseudopotentials (lmaxx) =  3
               file Al.pbe-nl-kjpaw_psl.1.0.0.UPF: wavefunction(s)  3S 3P renormalized

     Subspace diagonalization in iterative solution of the eigenvalue problem:
     a serial algorithm will be used


     G-vector sticks info
     --------------------
     sticks:   dense  smooth     PW     G-vecs:    dense   smooth      PW
     Sum         305     305    145                 4139     4139    1309



     bravais-lattice index     =            0
     lattice parameter (alat)  =       4.0400  a.u.
     unit-cell volume          =      65.9393 (a.u.)^3
     number of atoms/cell      =            4
     number of atomic types    =            1
     number of electrons       =        12.00
     number of Kohn-Sham states=           10
     kinetic-energy cutoff     =      90.0000  Ry
     charge density cutoff     =     240.0000  Ry
     convergence threshold     =      1.0E-06
     mixing beta               =       0.1000
     number of iterations used =           10  TF        mixing
     Exchange-correlation      = SLA PW PBX PBC ( 1  4  3  4 0 0)

     celldm(1)=   4.040000  celldm(2)=   0.000000  celldm(3)=   0.000000
     celldm(4)=   0.000000  celldm(5)=   0.000000  celldm(6)=   0.000000

     crystal axes: (cart. coord. in units of alat)
               a(1) = (   1.000000   0.000000   0.000000 )  
               a(2) = (   0.000000   1.000000   0.000000 )  
               a(3) = (   0.000000   0.000000   1.000000 )  

     reciprocal axes: (cart. coord. in units 2 pi/alat)
               b(1) = (  1.000000  0.000000  0.000000 )  
               b(2) = (  0.000000  1.000000  0.000000 )  
               b(3) = (  0.000000  0.000000  1.000000 )  


     PseudoPot. # 1 for Al read from file:
     /opt/pp/Al.pbe-nl-kjpaw_psl.1.0.0.UPF
     MD5 check sum: 1b67f78b73fe58c7924490f171ce8a1e
     Pseudo is Projector augmented-wave + core cor, Zval =  3.0
     Generated using "atomic" code by A. Dal Corso v.6.3
     Shape of augmentation charge: PSQ
     Using radial grid of 1135 points,  4 beta functions with: 
                l(1) =   0
                l(2) =   0
                l(3) =   1
                l(4) =   1
     Q(r) pseudized with 0 coefficients 


     atomic species   valence    mass     pseudopotential
        Al             3.00    26.98200     Al( 1.00)

     No symmetry found



   Cartesian axes

     site n.     atom                  positions (alat units)
         1           Al  tau(   1) = (  -0.0001235   0.0000359   0.0002572  )
         2           Al  tau(   2) = (   0.5003009   0.4992819   0.0002658  )
         3           Al  tau(   3) = (   0.4996490   0.0001153   0.5011170  )
         4           Al  tau(   4) = (  -0.0000756   0.5008267   0.5006943  )

     number of k points=    32  Marzari-Vanderbilt smearing, width (Ry)=  0.0200
                       cart. coord. in units 2pi/alat
        k(    1) = (   0.1250000   0.1250000   0.1250000), wk =   0.0625000
        k(    2) = (   0.1250000   0.1250000   0.3750000), wk =   0.0625000
        k(    3) = (   0.1250000   0.3750000   0.3750000), wk =   0.0625000
        k(    4) = (   0.3750000   0.3750000   0.3750000), wk =   0.0625000
        k(    5) = (  -0.1250000  -0.1250000   0.1250000), wk =   0.0625000
        k(    6) = (  -0.1250000   0.1250000  -0.1250000), wk =   0.0625000
        k(    7) = (   0.1250000  -0.1250000  -0.1250000), wk =   0.0625000
        k(    8) = (  -0.1250000  -0.1250000   0.3750000), wk =   0.0625000
        k(    9) = (  -0.1250000   0.1250000  -0.3750000), wk =   0.0625000
        k(   10) = (   0.1250000  -0.1250000  -0.3750000), wk =   0.0625000
        k(   11) = (   0.3750000  -0.1250000   0.1250000), wk =   0.0625000
        k(   12) = (  -0.3750000  -0.1250000  -0.1250000), wk =   0.0625000
        k(   13) = (   0.3750000   0.1250000  -0.1250000), wk =   0.0625000
        k(   14) = (  -0.3750000   0.1250000   0.1250000), wk =   0.0625000
        k(   15) = (  -0.1250000   0.3750000   0.1250000), wk =   0.0625000
        k(   16) = (  -0.1250000  -0.3750000  -0.1250000), wk =   0.0625000
        k(   17) = (   0.1250000   0.3750000  -0.1250000), wk =   0.0625000
        k(   18) = (   0.1250000  -0.3750000   0.1250000), wk =   0.0625000
        k(   19) = (  -0.1250000  -0.3750000   0.3750000), wk =   0.0625000
        k(   20) = (  -0.1250000   0.3750000  -0.3750000), wk =   0.0625000
        k(   21) = (   0.1250000  -0.3750000  -0.3750000), wk =   0.0625000
        k(   22) = (   0.3750000   0.1250000  -0.3750000), wk =   0.0625000
        k(   23) = (  -0.3750000  -0.1250000  -0.3750000), wk =   0.0625000
        k(   24) = (   0.3750000  -0.1250000   0.3750000), wk =   0.0625000
        k(   25) = (  -0.3750000   0.1250000   0.3750000), wk =   0.0625000
        k(   26) = (   0.3750000  -0.3750000   0.1250000), wk =   0.0625000
        k(   27) = (  -0.3750000  -0.3750000  -0.1250000), wk =   0.0625000
        k(   28) = (   0.3750000   0.3750000  -0.1250000), wk =   0.0625000
        k(   29) = (  -0.3750000   0.3750000   0.1250000), wk =   0.0625000
        k(   30) = (  -0.3750000  -0.3750000   0.3750000), wk =   0.0625000
        k(   31) = (  -0.3750000   0.3750000  -0.3750000), wk =   0.0625000
        k(   32) = (   0.3750000  -0.3750000  -0.3750000), wk =   0.0625000

     Dense  grid:     4139 G-vectors     FFT dimensions: (  20,  20,  20)

     Estimated max dynamical RAM per process >      11.39 MB

     Initial potential from superposition of free atoms

     starting charge   11.99084, renormalised to   12.00000
     Starting wfcs are   16 randomized atomic wfcs
     Checking if some PAW data can be deallocated... 

     total cpu time spent up to now is        1.2 secs

     Self-consistent Calculation

     iteration #  1     ecut=    90.00 Ry     beta= 0.10
     Davidson diagonalization with overlap
     ethr =  1.00E-02,  avg # of iterations =  4.9

     total cpu time spent up to now is        2.0 secs

     total energy              =    -141.65279415 Ry
     Harris-Foulkes estimate   =    -141.80706815 Ry
     estimated scf accuracy    <       0.18120086 Ry

     iteration #  2     ecut=    90.00 Ry     beta= 0.10
     Davidson diagonalization with overlap
     ethr =  1.51E-03,  avg # of iterations =  1.0

     total cpu time spent up to now is        2.6 secs

     total energy              =    -141.16260107 Ry
     Harris-Foulkes estimate   =    -141.65536271 Ry
     estimated scf accuracy    <       0.15203934 Ry

     iteration #  3     ecut=    90.00 Ry     beta= 0.10
     Davidson diagonalization with overlap
     ethr =  1.27E-03,  avg # of iterations =  2.0

     total cpu time spent up to now is        3.2 secs

     total energy              =    -141.24436539 Ry
     Harris-Foulkes estimate   =    -141.25586299 Ry
     estimated scf accuracy    <       0.01565930 Ry

     iteration #  4     ecut=    90.00 Ry     beta= 0.10
     Davidson diagonalization with overlap
     ethr =  1.30E-04,  avg # of iterations =  1.0

     total cpu time spent up to now is        3.8 secs

     total energy              =    -141.24159632 Ry
     Harris-Foulkes estimate   =    -141.24476860 Ry
     estimated scf accuracy    <       0.01258655 Ry

     iteration #  5     ecut=    90.00 Ry     beta= 0.10
     Davidson diagonalization with overlap
     ethr =  1.05E-04,  avg # of iterations =  1.0

     total cpu time spent up to now is        4.3 secs

     total energy              =    -141.24337931 Ry
     Harris-Foulkes estimate   =    -141.24265258 Ry
     estimated scf accuracy    <       0.00084830 Ry

     iteration #  6     ecut=    90.00 Ry     beta= 0.10
     Davidson diagonalization with overlap
     ethr =  7.07E-06,  avg # of iterations =  2.5

     total cpu time spent up to now is        4.9 secs

     total energy              =    -141.24366177 Ry
     Harris-Foulkes estimate   =    -141.24365169 Ry
     estimated scf accuracy    <       0.00012188 Ry

     iteration #  7     ecut=    90.00 Ry     beta= 0.10
     Davidson diagonalization with overlap
     ethr =  1.02E-06,  avg # of iterations =  1.2

     total cpu time spent up to now is        5.5 secs

     total energy              =    -141.24277728 Ry
     Harris-Foulkes estimate   =    -141.24366397 Ry
     estimated scf accuracy    <       0.00010299 Ry

     iteration #  8     ecut=    90.00 Ry     beta= 0.10
     Davidson diagonalization with overlap
     ethr =  8.58E-07,  avg # of iterations =  2.4

     total cpu time spent up to now is        6.1 secs

     total energy              =    -141.24296001 Ry
     Harris-Foulkes estimate   =    -141.24285665 Ry
     estimated scf accuracy    <       0.00004282 Ry

     iteration #  9     ecut=    90.00 Ry     beta= 0.10
     Davidson diagonalization with overlap
     ethr =  3.57E-07,  avg # of iterations =  2.0

     total cpu time spent up to now is        6.7 secs

     total energy              =    -141.24282679 Ry
     Harris-Foulkes estimate   =    -141.24296825 Ry
     estimated scf accuracy    <       0.00000827 Ry

     iteration # 10     ecut=    90.00 Ry     beta= 0.10
     Davidson diagonalization with overlap
     ethr =  6.89E-08,  avg # of iterations =  3.0

     total cpu time spent up to now is        7.4 secs

     total energy              =    -141.24283875 Ry
     Harris-Foulkes estimate   =    -141.24283870 Ry
     estimated scf accuracy    <       0.00000163 Ry

     iteration # 11     ecut=    90.00 Ry     beta= 0.10
     Davidson diagonalization with overlap
     ethr =  1.36E-08,  avg # of iterations =  1.0

     total cpu time spent up to now is        8.0 secs

     End of self-consistent calculation

          k = 0.1250 0.1250 0.1250 (   952 PWs)   bands (ev):

    30.9112  41.4354  41.4545  41.4733  52.4288  52.4491  52.4692  54.9295
    54.9394  54.9493

          k = 0.1250 0.1250 0.3750 (   950 PWs)   bands (ev):

    34.4042  39.0110  43.9405  43.9594  51.8104  51.8277  54.8762  54.8849
    55.6920  61.5159

          k = 0.1250 0.3750 0.3750 (   953 PWs)   bands (ev):

    37.4196  41.6547  41.6916  44.5469  50.4928  52.9056  52.9547  57.0457
    57.5673  60.7355

          k = 0.3750 0.3750 0.3750 (   958 PWs)   bands (ev):

    39.8854  43.9743  44.0123  44.0500  47.7736  47.8151  47.8566  51.6492
    66.9737  66.9772

          k =-0.1250-0.1250 0.1250 (   952 PWs)   bands (ev):

    30.9112  41.4394  41.4545  41.4693  52.4331  52.4490  52.4650  54.9316
    54.9394  54.9473

          k =-0.1250 0.1250-0.1250 (   952 PWs)   bands (ev):

    30.9112  41.4433  41.4545  41.4654  52.4372  52.4491  52.4608  54.9336
    54.9394  54.9452

          k = 0.1250-0.1250-0.1250 (   952 PWs)   bands (ev):

    30.9112  41.4412  41.4545  41.4675  52.4350  52.4491  52.4630  54.9325
    54.9393  54.9463

          k =-0.1250-0.1250 0.3750 (   950 PWs)   bands (ev):

    34.4042  39.0111  43.9405  43.9593  51.8104  51.8277  54.8763  54.8849
    55.6918  61.5157

          k =-0.1250 0.1250-0.3750 (   950 PWs)   bands (ev):

    34.4042  39.0111  43.9456  43.9542  51.8151  51.8230  54.8786  54.8826
    55.6918  61.5156

          k = 0.1250-0.1250-0.3750 (   950 PWs)   bands (ev):

    34.4042  39.0110  43.9456  43.9543  51.8151  51.8230  54.8786  54.8826
    55.6920  61.5153

          k = 0.3750-0.1250 0.1250 (   950 PWs)   bands (ev):

    34.4043  39.0109  43.9456  43.9543  51.8149  51.8229  54.8787  54.8828
    55.6920  61.5156

          k =-0.3750-0.1250-0.1250 (   950 PWs)   bands (ev):

    34.4043  39.0109  43.9419  43.9580  51.8118  51.8265  54.8765  54.8839
    55.6926  61.5157

          k = 0.3750 0.1250-0.1250 (   950 PWs)   bands (ev):

    34.4043  39.0109  43.9456  43.9544  51.8148  51.8229  54.8788  54.8828
    55.6921  61.5157

          k =-0.3750 0.1250 0.1250 (   950 PWs)   bands (ev):

    34.4043  39.0109  43.9419  43.9580  51.8118  51.8265  54.8766  54.8840
    55.6922  61.5158

          k =-0.1250 0.3750 0.1250 (   950 PWs)   bands (ev):

    34.4043  39.0109  43.9489  43.9513  51.8180  51.8202  54.8799  54.8810
    55.6919  61.5157

          k =-0.1250-0.3750-0.1250 (   950 PWs)   bands (ev):

    34.4043  39.0108  43.9454  43.9548  51.8146  51.8233  54.8784  54.8827
    55.6921  61.5158

          k = 0.1250 0.3750-0.1250 (   950 PWs)   bands (ev):

    34.4043  39.0109  43.9489  43.9513  51.8179  51.8201  54.8798  54.8810
    55.6923  61.5157

          k = 0.1250-0.3750 0.1250 (   950 PWs)   bands (ev):

    34.4043  39.0109  43.9454  43.9548  51.8147  51.8233  54.8784  54.8827
    55.6919  61.5158

          k =-0.1250-0.3750 0.3750 (   953 PWs)   bands (ev):

    37.4196  41.6631  41.6833  44.5467  50.4930  52.9166  52.9434  57.0451
    57.5682  60.7343

          k =-0.1250 0.3750-0.3750 (   953 PWs)   bands (ev):

    37.4196  41.6631  41.6833  44.5467  50.4929  52.9166  52.9434  57.0447
    57.5687  60.7351

          k = 0.1250-0.3750-0.3750 (   953 PWs)   bands (ev):

    37.4196  41.6547  41.6916  44.5469  50.4928  52.9056  52.9547  57.0453
    57.5675  60.7321

          k = 0.3750 0.1250-0.3750 (   953 PWs)   bands (ev):

    37.4196  41.6704  41.6759  44.5467  50.4928  52.9265  52.9339  57.0458
    57.5675  60.7357

          k =-0.3750-0.1250-0.3750 (   953 PWs)   bands (ev):

    37.4196  41.6623  41.6840  44.5466  50.4931  52.9158  52.9447  57.0460
    57.5671  60.7331

          k = 0.3750-0.1250 0.3750 (   953 PWs)   bands (ev):

    37.4196  41.6623  41.6841  44.5467  50.4929  52.9156  52.9446  57.0461
    57.5672  60.7336

          k =-0.3750 0.1250 0.3750 (   953 PWs)   bands (ev):

    37.4196  41.6704  41.6759  44.5467  50.4929  52.9265  52.9340  57.0454
    57.5675  60.7362

          k = 0.3750-0.3750 0.1250 (   953 PWs)   bands (ev):

    37.4196  41.6632  41.6831  44.5468  50.4926  52.9168  52.9433  57.0460
    57.5673  60.7342

          k =-0.3750-0.3750-0.1250 (   953 PWs)   bands (ev):

    37.4197  41.6515  41.6949  44.5467  50.4930  52.9012  52.9589  57.0439
    57.5692  60.7303

          k = 0.3750 0.3750-0.1250 (   953 PWs)   bands (ev):

    37.4197  41.6515  41.6949  44.5467  50.4928  52.9011  52.9589  57.0460
    57.5672  60.7311

          k =-0.3750 0.3750 0.1250 (   953 PWs)   bands (ev):

    37.4196  41.6632  41.6831  44.5468  50.4929  52.9169  52.9434  57.0414
    57.5718  60.7343

          k =-0.3750-0.3750 0.3750 (   958 PWs)   bands (ev):

    39.8854  43.9822  44.0123  44.0421  47.7823  47.8150  47.8479  51.6493
    66.9723  66.9756

          k =-0.3750 0.3750-0.3750 (   958 PWs)   bands (ev):

    39.8854  43.9900  44.0123  44.0343  47.7908  47.8150  47.8394  51.6494
    66.9735  66.9764

          k = 0.3750-0.3750-0.3750 (   958 PWs)   bands (ev):

    39.8854  43.9859  44.0122  44.0384  47.7864  47.8151  47.8440  51.6492
    66.9731  66.9770

     the Fermi energy is    52.6605 ev

!    total energy              =    -141.24283712 Ry
     Harris-Foulkes estimate   =    -141.24283879 Ry
     estimated scf accuracy    <       0.00000092 Ry

     total all-electron energy =     -1925.813959 Ry

     The total energy is the sum of the following terms:

     one-electron contribution =      58.67253541 Ry
     hartree contribution      =       0.21192897 Ry
     xc contribution           =     -17.28497112 Ry
     ewald contribution        =     -40.85514763 Ry
     one-center paw contrib.   =    -141.98654334 Ry
     smearing contrib. (-TS)   =      -0.00063941 Ry

     convergence has been achieved in  11 iterations

     Forces acting on atoms (cartesian axes, Ry/au):

     atom    1 type  1   force =     0.00201633   -0.00040452    0.01641698
     atom    2 type  1   force =    -0.00324717    0.00367591    0.01637282
     atom    3 type  1   force =    -0.00058747   -0.00066542   -0.01728012
     atom    4 type  1   force =     0.00181830   -0.00260597   -0.01550968

     Total force =     0.033405     Total SCF correction =     0.000006


     Computing stress (Cartesian axis) and pressure

          total   stress  (Ry/bohr**3)                   (kbar)     P=59674.38
   0.40566375   0.00000119   0.00000077      59675.19      0.18      0.11
   0.00000119   0.40565233  -0.00000113          0.18  59673.51     -0.17
   0.00000077  -0.00000113   0.40565863          0.11     -0.17  59674.43


     Writing output data file fe_scf_fcc_2.save/

     init_run     :      0.74s CPU      0.76s WALL (       1 calls)
     electrons    :      6.69s CPU      6.77s WALL (       1 calls)
     forces       :      0.07s CPU      0.08s WALL (       1 calls)
     stress       :      0.24s CPU      0.24s WALL (       1 calls)

     Called by init_run:
     wfcinit      :      0.21s CPU      0.22s WALL (       1 calls)
     potinit      :      0.24s CPU      0.25s WALL (       1 calls)
     hinit0       :      0.28s CPU      0.28s WALL (       1 calls)

     Called by electrons:
     c_bands      :      3.36s CPU      3.41s WALL (      11 calls)
     sum_band     :      0.55s CPU      0.57s WALL (      11 calls)
     v_of_rho     :      0.06s CPU      0.06s WALL (      12 calls)
     newd         :      0.07s CPU      0.07s WALL (      12 calls)
     PAW_pot      :      2.87s CPU      2.90s WALL (      12 calls)
     mix_rho      :      0.02s CPU      0.01s WALL (      11 calls)

     Called by c_bands:
     init_us_2    :      0.22s CPU      0.25s WALL (     800 calls)
     cegterg      :      3.06s CPU      3.04s WALL (     352 calls)

     Called by sum_band:
     sum_band:bec :      0.00s CPU      0.00s WALL (     352 calls)
     addusdens    :      0.04s CPU      0.04s WALL (      11 calls)

     Called by *egterg:
     h_psi        :      2.18s CPU      2.19s WALL (    1085 calls)
     s_psi        :      0.18s CPU      0.21s WALL (    1085 calls)
     g_psi        :      0.02s CPU      0.04s WALL (     701 calls)
     cdiaghg      :      0.19s CPU      0.19s WALL (    1053 calls)

     Called by h_psi:
     h_psi:pot    :      2.15s CPU      2.17s WALL (    1085 calls)
     h_psi:calbec :      0.20s CPU      0.22s WALL (    1085 calls)
     vloc_psi     :      1.79s CPU      1.73s WALL (    1085 calls)
     add_vuspsi   :      0.16s CPU      0.22s WALL (    1085 calls)

     General routines
     calbec       :      0.28s CPU      0.32s WALL (    1597 calls)
     fft          :      0.01s CPU      0.01s WALL (     158 calls)
     ffts         :      0.00s CPU      0.00s WALL (      11 calls)
     fftw         :      1.70s CPU      1.77s WALL (   22162 calls)

     Parallel routines

     PWSCF        :     8.16s CPU         8.30s WALL


   This run was terminated on:   2:54: 0  20Oct2019            

=------------------------------------------------------------------------------=
   JOB DONE.
=------------------------------------------------------------------------------=
