
     Program PWSCF v.6.3 starts on 20Oct2019 at  2:59:58 

     This program is part of the open-source Quantum ESPRESSO suite
     for quantum simulation of materials; please cite
         "P. Giannozzi et al., J. Phys.:Condens. Matter 21 395502 (2009);
         "P. Giannozzi et al., J. Phys.:Condens. Matter 29 465901 (2017);
          URL http://www.quantum-espresso.org", 
     in publications or presentations arising from this work. More details at
     http://www.quantum-espresso.org/quote

     Parallel version (MPI), running on     1 processors

     MPI processes distributed on     1 nodes
     Reading input from /cloud/Code/python/py_pwscf_converge/src/example/wd/runpwscf/file_10153.in
Warning: card &IONS ignored
Warning: card ION_DYNAMICS = 'BFGS', ignored
Warning: card / ignored
Warning: card &CELL ignored
Warning: card CELL_DYNAMICS = 'BFGS', ignored
Warning: card CELL_FACTOR = 2.0, ignored
Warning: card PRESS = 0.0, ignored
Warning: card / ignored

     Current dimensions of program PWSCF are:
     Max number of different atomic species (ntypx) = 10
     Max number of k-points (npk) =  40000
     Max angular momentum in pseudopotentials (lmaxx) =  3
               file Al.pbe-nl-kjpaw_psl.1.0.0.UPF: wavefunction(s)  3S 3P renormalized

     Subspace diagonalization in iterative solution of the eigenvalue problem:
     a serial algorithm will be used


     G-vector sticks info
     --------------------
     sticks:   dense  smooth     PW     G-vecs:    dense   smooth      PW
     Sum         357     341    109                 5185     4697     847



     bravais-lattice index     =            0
     lattice parameter (alat)  =       4.0400  a.u.
     unit-cell volume          =      65.9393 (a.u.)^3
     number of atoms/cell      =            4
     number of atomic types    =            1
     number of electrons       =        12.00
     number of Kohn-Sham states=           10
     kinetic-energy cutoff     =      65.0000  Ry
     charge density cutoff     =     280.0000  Ry
     convergence threshold     =      1.0E-06
     mixing beta               =       0.1000
     number of iterations used =           10  TF        mixing
     Exchange-correlation      = SLA PW PBX PBC ( 1  4  3  4 0 0)

     celldm(1)=   4.040000  celldm(2)=   0.000000  celldm(3)=   0.000000
     celldm(4)=   0.000000  celldm(5)=   0.000000  celldm(6)=   0.000000

     crystal axes: (cart. coord. in units of alat)
               a(1) = (   1.000000   0.000000   0.000000 )  
               a(2) = (   0.000000   1.000000   0.000000 )  
               a(3) = (   0.000000   0.000000   1.000000 )  

     reciprocal axes: (cart. coord. in units 2 pi/alat)
               b(1) = (  1.000000  0.000000  0.000000 )  
               b(2) = (  0.000000  1.000000  0.000000 )  
               b(3) = (  0.000000  0.000000  1.000000 )  


     PseudoPot. # 1 for Al read from file:
     /opt/pp/Al.pbe-nl-kjpaw_psl.1.0.0.UPF
     MD5 check sum: 1b67f78b73fe58c7924490f171ce8a1e
     Pseudo is Projector augmented-wave + core cor, Zval =  3.0
     Generated using "atomic" code by A. Dal Corso v.6.3
     Shape of augmentation charge: PSQ
     Using radial grid of 1135 points,  4 beta functions with: 
                l(1) =   0
                l(2) =   0
                l(3) =   1
                l(4) =   1
     Q(r) pseudized with 0 coefficients 


     atomic species   valence    mass     pseudopotential
        Al             3.00    26.98200     Al( 1.00)

     No symmetry found



   Cartesian axes

     site n.     atom                  positions (alat units)
         1           Al  tau(   1) = (  -0.0001235   0.0000359   0.0002572  )
         2           Al  tau(   2) = (   0.5003009   0.4992819   0.0002658  )
         3           Al  tau(   3) = (   0.4996490   0.0001153   0.5011170  )
         4           Al  tau(   4) = (  -0.0000756   0.5008267   0.5006943  )

     number of k points=    32  Marzari-Vanderbilt smearing, width (Ry)=  0.0200
                       cart. coord. in units 2pi/alat
        k(    1) = (   0.1250000   0.1250000   0.1250000), wk =   0.0625000
        k(    2) = (   0.1250000   0.1250000   0.3750000), wk =   0.0625000
        k(    3) = (   0.1250000   0.3750000   0.3750000), wk =   0.0625000
        k(    4) = (   0.3750000   0.3750000   0.3750000), wk =   0.0625000
        k(    5) = (  -0.1250000  -0.1250000   0.1250000), wk =   0.0625000
        k(    6) = (  -0.1250000   0.1250000  -0.1250000), wk =   0.0625000
        k(    7) = (   0.1250000  -0.1250000  -0.1250000), wk =   0.0625000
        k(    8) = (  -0.1250000  -0.1250000   0.3750000), wk =   0.0625000
        k(    9) = (  -0.1250000   0.1250000  -0.3750000), wk =   0.0625000
        k(   10) = (   0.1250000  -0.1250000  -0.3750000), wk =   0.0625000
        k(   11) = (   0.3750000  -0.1250000   0.1250000), wk =   0.0625000
        k(   12) = (  -0.3750000  -0.1250000  -0.1250000), wk =   0.0625000
        k(   13) = (   0.3750000   0.1250000  -0.1250000), wk =   0.0625000
        k(   14) = (  -0.3750000   0.1250000   0.1250000), wk =   0.0625000
        k(   15) = (  -0.1250000   0.3750000   0.1250000), wk =   0.0625000
        k(   16) = (  -0.1250000  -0.3750000  -0.1250000), wk =   0.0625000
        k(   17) = (   0.1250000   0.3750000  -0.1250000), wk =   0.0625000
        k(   18) = (   0.1250000  -0.3750000   0.1250000), wk =   0.0625000
        k(   19) = (  -0.1250000  -0.3750000   0.3750000), wk =   0.0625000
        k(   20) = (  -0.1250000   0.3750000  -0.3750000), wk =   0.0625000
        k(   21) = (   0.1250000  -0.3750000  -0.3750000), wk =   0.0625000
        k(   22) = (   0.3750000   0.1250000  -0.3750000), wk =   0.0625000
        k(   23) = (  -0.3750000  -0.1250000  -0.3750000), wk =   0.0625000
        k(   24) = (   0.3750000  -0.1250000   0.3750000), wk =   0.0625000
        k(   25) = (  -0.3750000   0.1250000   0.3750000), wk =   0.0625000
        k(   26) = (   0.3750000  -0.3750000   0.1250000), wk =   0.0625000
        k(   27) = (  -0.3750000  -0.3750000  -0.1250000), wk =   0.0625000
        k(   28) = (   0.3750000   0.3750000  -0.1250000), wk =   0.0625000
        k(   29) = (  -0.3750000   0.3750000   0.1250000), wk =   0.0625000
        k(   30) = (  -0.3750000  -0.3750000   0.3750000), wk =   0.0625000
        k(   31) = (  -0.3750000   0.3750000  -0.3750000), wk =   0.0625000
        k(   32) = (   0.3750000  -0.3750000  -0.3750000), wk =   0.0625000

     Dense  grid:     5185 G-vectors     FFT dimensions: (  24,  24,  24)

     Smooth grid:     4697 G-vectors     FFT dimensions: (  24,  24,  24)

     Estimated max dynamical RAM per process >      11.13 MB

     Initial potential from superposition of free atoms

     starting charge   11.99084, renormalised to   12.00000
     Starting wfcs are   16 randomized atomic wfcs
     Checking if some PAW data can be deallocated... 

     total cpu time spent up to now is        1.4 secs

     Self-consistent Calculation

     iteration #  1     ecut=    65.00 Ry     beta= 0.10
     Davidson diagonalization with overlap
     ethr =  1.00E-02,  avg # of iterations =  4.9

     total cpu time spent up to now is        2.9 secs

     total energy              =    -141.65257066 Ry
     Harris-Foulkes estimate   =    -141.80685394 Ry
     estimated scf accuracy    <       0.18103893 Ry

     iteration #  2     ecut=    65.00 Ry     beta= 0.10
     Davidson diagonalization with overlap
     ethr =  1.51E-03,  avg # of iterations =  1.0

     total cpu time spent up to now is        3.7 secs

     total energy              =    -141.16256700 Ry
     Harris-Foulkes estimate   =    -141.65506174 Ry
     estimated scf accuracy    <       0.15209079 Ry

     iteration #  3     ecut=    65.00 Ry     beta= 0.10
     Davidson diagonalization with overlap
     ethr =  1.27E-03,  avg # of iterations =  2.0

     total cpu time spent up to now is        4.7 secs

     total energy              =    -141.24383010 Ry
     Harris-Foulkes estimate   =    -141.25669234 Ry
     estimated scf accuracy    <       0.01579639 Ry

     iteration #  4     ecut=    65.00 Ry     beta= 0.10
     Davidson diagonalization with overlap
     ethr =  1.32E-04,  avg # of iterations =  1.0

     total cpu time spent up to now is        5.5 secs

     total energy              =    -141.24128949 Ry
     Harris-Foulkes estimate   =    -141.24426986 Ry
     estimated scf accuracy    <       0.01255418 Ry

     iteration #  5     ecut=    65.00 Ry     beta= 0.10
     Davidson diagonalization with overlap
     ethr =  1.05E-04,  avg # of iterations =  1.0

     total cpu time spent up to now is        6.3 secs

     total energy              =    -141.24335004 Ry
     Harris-Foulkes estimate   =    -141.24237573 Ry
     estimated scf accuracy    <       0.00074287 Ry

     iteration #  6     ecut=    65.00 Ry     beta= 0.10
     Davidson diagonalization with overlap
     ethr =  6.19E-06,  avg # of iterations =  3.1

     total cpu time spent up to now is        7.4 secs

     total energy              =    -141.24358758 Ry
     Harris-Foulkes estimate   =    -141.24362408 Ry
     estimated scf accuracy    <       0.00008960 Ry

     iteration #  7     ecut=    65.00 Ry     beta= 0.10
     Davidson diagonalization with overlap
     ethr =  7.47E-07,  avg # of iterations =  1.1

     total cpu time spent up to now is        8.2 secs

     total energy              =    -141.24258065 Ry
     Harris-Foulkes estimate   =    -141.24358863 Ry
     estimated scf accuracy    <       0.00007355 Ry

     iteration #  8     ecut=    65.00 Ry     beta= 0.10
     Davidson diagonalization with overlap
     ethr =  6.13E-07,  avg # of iterations =  2.9

     total cpu time spent up to now is        9.3 secs

     total energy              =    -141.24266826 Ry
     Harris-Foulkes estimate   =    -141.24264841 Ry
     estimated scf accuracy    <       0.00000674 Ry

     iteration #  9     ecut=    65.00 Ry     beta= 0.10
     Davidson diagonalization with overlap
     ethr =  5.62E-08,  avg # of iterations =  1.4

     total cpu time spent up to now is       10.1 secs

     total energy              =    -141.24258275 Ry
     Harris-Foulkes estimate   =    -141.24266865 Ry
     estimated scf accuracy    <       0.00000782 Ry

     iteration # 10     ecut=    65.00 Ry     beta= 0.10
     Davidson diagonalization with overlap
     ethr =  5.62E-08,  avg # of iterations =  3.0

     total cpu time spent up to now is       13.2 secs

     total energy              =    -141.24259226 Ry
     Harris-Foulkes estimate   =    -141.24259292 Ry
     estimated scf accuracy    <       0.00000148 Ry

     iteration # 11     ecut=    65.00 Ry     beta= 0.10
     Davidson diagonalization with overlap
     ethr =  1.23E-08,  avg # of iterations =  1.0

     total cpu time spent up to now is       15.7 secs

     total energy              =    -141.24259211 Ry
     Harris-Foulkes estimate   =    -141.24259229 Ry
     estimated scf accuracy    <       0.00000130 Ry

     iteration # 12     ecut=    65.00 Ry     beta= 0.10
     Davidson diagonalization with overlap
     ethr =  1.08E-08,  avg # of iterations =  1.0

     total cpu time spent up to now is       18.2 secs

     End of self-consistent calculation

          k = 0.1250 0.1250 0.1250 (   585 PWs)   bands (ev):

    30.9171  41.4387  41.4578  41.4765  52.4299  52.4502  52.4703  54.9343
    54.9442  54.9542

          k = 0.1250 0.1250 0.3750 (   579 PWs)   bands (ev):

    34.4099  39.0160  43.9443  43.9631  51.8133  51.8306  54.8796  54.8883
    55.6931  61.5183

          k = 0.1250 0.3750 0.3750 (   589 PWs)   bands (ev):

    37.4250  41.6596  41.6965  44.5516  50.4957  52.9082  52.9573  57.0478
    57.5699  60.7328

          k = 0.3750 0.3750 0.3750 (   591 PWs)   bands (ev):

    39.8903  43.9790  44.0169  44.0547  47.7769  47.8184  47.8599  51.6522
    66.9753  66.9796

          k =-0.1250-0.1250 0.1250 (   585 PWs)   bands (ev):

    30.9171  41.4427  41.4578  41.4726  52.4342  52.4501  52.4661  54.9364
    54.9442  54.9521

          k =-0.1250 0.1250-0.1250 (   585 PWs)   bands (ev):

    30.9171  41.4466  41.4577  41.4687  52.4383  52.4501  52.4619  54.9384
    54.9442  54.9501

          k = 0.1250-0.1250-0.1250 (   585 PWs)   bands (ev):

    30.9171  41.4445  41.4578  41.4708  52.4361  52.4502  52.4641  54.9373
    54.9442  54.9511

          k =-0.1250-0.1250 0.3750 (   579 PWs)   bands (ev):

    34.4099  39.0160  43.9442  43.9631  51.8133  51.8306  54.8797  54.8883
    55.6929  61.5185

          k =-0.1250 0.1250-0.3750 (   579 PWs)   bands (ev):

    34.4099  39.0160  43.9494  43.9580  51.8179  51.8259  54.8820  54.8860
    55.6930  61.5185

          k = 0.1250-0.1250-0.3750 (   579 PWs)   bands (ev):

    34.4099  39.0160  43.9494  43.9580  51.8179  51.8258  54.8820  54.8860
    55.6932  61.5182

          k = 0.3750-0.1250 0.1250 (   579 PWs)   bands (ev):

    34.4099  39.0159  43.9493  43.9581  51.8177  51.8258  54.8822  54.8862
    55.6931  61.5183

          k =-0.3750-0.1250-0.1250 (   579 PWs)   bands (ev):

    34.4099  39.0159  43.9457  43.9617  51.8147  51.8293  54.8800  54.8873
    55.6937  61.5185

          k = 0.3750 0.1250-0.1250 (   579 PWs)   bands (ev):

    34.4099  39.0159  43.9494  43.9581  51.8177  51.8257  54.8822  54.8862
    55.6932  61.5185

          k =-0.3750 0.1250 0.1250 (   579 PWs)   bands (ev):

    34.4099  39.0159  43.9457  43.9617  51.8147  51.8294  54.8800  54.8874
    55.6934  61.5185

          k =-0.1250 0.3750 0.1250 (   579 PWs)   bands (ev):

    34.4099  39.0158  43.9527  43.9551  51.8208  51.8231  54.8833  54.8845
    55.6931  61.5185

          k =-0.1250-0.3750-0.1250 (   579 PWs)   bands (ev):

    34.4099  39.0158  43.9492  43.9586  51.8175  51.8262  54.8818  54.8861
    55.6932  61.5186

          k = 0.1250 0.3750-0.1250 (   579 PWs)   bands (ev):

    34.4099  39.0158  43.9527  43.9551  51.8208  51.8230  54.8832  54.8844
    55.6934  61.5184

          k = 0.1250-0.3750 0.1250 (   579 PWs)   bands (ev):

    34.4099  39.0158  43.9491  43.9585  51.8176  51.8262  54.8818  54.8861
    55.6930  61.5185

          k =-0.1250-0.3750 0.3750 (   589 PWs)   bands (ev):

    37.4249  41.6681  41.6882  44.5514  50.4958  52.9192  52.9460  57.0472
    57.5708  60.7359

          k =-0.1250 0.3750-0.3750 (   589 PWs)   bands (ev):

    37.4249  41.6681  41.6882  44.5515  50.4958  52.9192  52.9460  57.0468
    57.5713  60.7391

          k = 0.1250-0.3750-0.3750 (   589 PWs)   bands (ev):

    37.4250  41.6596  41.6965  44.5516  50.4957  52.9082  52.9573  57.0474
    57.5701  60.7329

          k = 0.3750 0.1250-0.3750 (   589 PWs)   bands (ev):

    37.4250  41.6753  41.6809  44.5515  50.4956  52.9291  52.9365  57.0479
    57.5701  60.7376

          k =-0.3750-0.1250-0.3750 (   589 PWs)   bands (ev):

    37.4250  41.6672  41.6889  44.5514  50.4959  52.9184  52.9473  57.0481
    57.5697  60.7373

          k = 0.3750-0.1250 0.3750 (   589 PWs)   bands (ev):

    37.4249  41.6673  41.6889  44.5514  50.4957  52.9183  52.9471  57.0482
    57.5698  60.7363

          k =-0.3750 0.1250 0.3750 (   589 PWs)   bands (ev):

    37.4249  41.6753  41.6809  44.5515  50.4958  52.9292  52.9366  57.0475
    57.5701  60.7385

          k = 0.3750-0.3750 0.1250 (   589 PWs)   bands (ev):

    37.4250  41.6682  41.6880  44.5515  50.4955  52.9194  52.9459  57.0481
    57.5699  60.7392

          k =-0.3750-0.3750-0.1250 (   589 PWs)   bands (ev):

    37.4250  41.6564  41.6998  44.5514  50.4959  52.9038  52.9616  57.0460
    57.5718  60.7318

          k = 0.3750 0.3750-0.1250 (   589 PWs)   bands (ev):

    37.4250  41.6564  41.6998  44.5514  50.4957  52.9037  52.9615  57.0481
    57.5698  60.7365

          k =-0.3750 0.3750 0.1250 (   589 PWs)   bands (ev):

    37.4250  41.6681  41.6880  44.5515  50.4958  52.9195  52.9460  57.0435
    57.5744  60.7358

          k =-0.3750-0.3750 0.3750 (   591 PWs)   bands (ev):

    39.8903  43.9869  44.0170  44.0467  47.7856  47.8183  47.8512  51.6523
    66.9766  66.9781

          k =-0.3750 0.3750-0.3750 (   591 PWs)   bands (ev):

    39.8902  43.9947  44.0169  44.0389  47.7941  47.8183  47.8426  51.6524
    66.9747  66.9780

          k = 0.3750-0.3750-0.3750 (   591 PWs)   bands (ev):

    39.8903  43.9905  44.0168  44.0431  47.7897  47.8184  47.8472  51.6522
    66.9746  66.9789

     the Fermi energy is    52.6621 ev

!    total energy              =    -141.24259153 Ry
     Harris-Foulkes estimate   =    -141.24259213 Ry
     estimated scf accuracy    <       0.00000022 Ry

     total all-electron energy =     -1925.813714 Ry

     The total energy is the sum of the following terms:

     one-electron contribution =      58.67286352 Ry
     hartree contribution      =       0.21195165 Ry
     xc contribution           =     -17.28533160 Ry
     ewald contribution        =     -40.85514762 Ry
     one-center paw contrib.   =    -141.98631236 Ry
     smearing contrib. (-TS)   =      -0.00061512 Ry

     convergence has been achieved in  12 iterations

     Forces acting on atoms (cartesian axes, Ry/au):

     atom    1 type  1   force =     0.00200357   -0.00038972    0.01643786
     atom    2 type  1   force =    -0.00324478    0.00373297    0.01640905
     atom    3 type  1   force =    -0.00055522   -0.00070066   -0.01730013
     atom    4 type  1   force =     0.00179643   -0.00264259   -0.01554678

     Total force =     0.033468     Total SCF correction =     0.000004


     Computing stress (Cartesian axis) and pressure

          total   stress  (Ry/bohr**3)                   (kbar)     P=59669.95
   0.40563342   0.00000113   0.00000096      59670.73      0.17      0.14
   0.00000113   0.40562230  -0.00000110          0.17  59669.09     -0.16
   0.00000096  -0.00000110   0.40562867          0.14     -0.16  59670.03


     Writing output data file fe_scf_fcc_2.save/

     init_run     :      0.92s CPU      0.95s WALL (       1 calls)
     electrons    :     16.60s CPU     16.82s WALL (       1 calls)
     forces       :      0.23s CPU      0.24s WALL (       1 calls)
     stress       :      0.60s CPU      0.61s WALL (       1 calls)

     Called by init_run:
     wfcinit      :      0.37s CPU      0.37s WALL (       1 calls)
     potinit      :      0.27s CPU      0.28s WALL (       1 calls)
     hinit0       :      0.28s CPU      0.28s WALL (       1 calls)

     Called by electrons:
     c_bands      :      9.78s CPU      9.94s WALL (      12 calls)
     sum_band     :      1.94s CPU      1.97s WALL (      12 calls)
     v_of_rho     :      0.24s CPU      0.25s WALL (      13 calls)
     newd         :      0.15s CPU      0.16s WALL (      13 calls)
     PAW_pot      :      4.67s CPU      4.70s WALL (      13 calls)
     mix_rho      :      0.04s CPU      0.04s WALL (      12 calls)

     Called by c_bands:
     init_us_2    :      0.31s CPU      0.29s WALL (     864 calls)
     cegterg      :      9.40s CPU      9.54s WALL (     384 calls)

     Called by sum_band:
     sum_band:bec :      0.01s CPU      0.01s WALL (     384 calls)
     addusdens    :      0.08s CPU      0.10s WALL (      12 calls)

     Called by *egterg:
     h_psi        :      8.52s CPU      8.61s WALL (    1161 calls)
     s_psi        :      0.25s CPU      0.24s WALL (    1161 calls)
     g_psi        :      0.04s CPU      0.04s WALL (     745 calls)
     cdiaghg      :      0.29s CPU      0.33s WALL (    1129 calls)

     Called by h_psi:
     h_psi:pot    :      8.50s CPU      8.58s WALL (    1161 calls)
     h_psi:calbec :      0.27s CPU      0.28s WALL (    1161 calls)
     vloc_psi     :      7.92s CPU      8.02s WALL (    1161 calls)
     add_vuspsi   :      0.31s CPU      0.28s WALL (    1161 calls)

     General routines
     calbec       :      0.42s CPU      0.45s WALL (    1705 calls)
     fft          :      0.22s CPU      0.21s WALL (     193 calls)
     ffts         :      0.03s CPU      0.02s WALL (      25 calls)
     fftw         :      8.77s CPU      8.87s WALL (   23898 calls)
     interpolate  :      0.03s CPU      0.03s WALL (      13 calls)

     Parallel routines

     PWSCF        :    18.85s CPU        19.16s WALL


   This run was terminated on:   3: 0:17  20Oct2019            

=------------------------------------------------------------------------------=
   JOB DONE.
=------------------------------------------------------------------------------=
