
     Program PWSCF v.6.3 starts on 22Oct2019 at 19: 2:44 

     This program is part of the open-source Quantum ESPRESSO suite
     for quantum simulation of materials; please cite
         "P. Giannozzi et al., J. Phys.:Condens. Matter 21 395502 (2009);
         "P. Giannozzi et al., J. Phys.:Condens. Matter 29 465901 (2017);
          URL http://www.quantum-espresso.org", 
     in publications or presentations arising from this work. More details at
     http://www.quantum-espresso.org/quote

     Parallel version (MPI & OpenMP), running on      20 processor cores
     Number of MPI processes:                20
     Threads/MPI process:                     1

     MPI processes distributed on     1 nodes
     R & G space division:  proc/nbgrp/npool/nimage =      20
     Reading input from /rds/homes/b/bxp912/jobs/20191022_test/wd/runpwscf/file_10054.in
Warning: card &IONS ignored
Warning: card ION_DYNAMICS = 'BFGS', ignored
Warning: card / ignored
Warning: card &CELL ignored
Warning: card CELL_DYNAMICS = 'BFGS', ignored
Warning: card CELL_FACTOR = 2.0, ignored
Warning: card PRESS = 0.0, ignored
Warning: card / ignored

     Current dimensions of program PWSCF are:
     Max number of different atomic species (ntypx) = 10
     Max number of k-points (npk) =  40000
     Max angular momentum in pseudopotentials (lmaxx) =  3
     Message from routine read_upf::
     Pseudo file /rds/homes/b/bxp912/pp/Al.pbe-nl-kjpaw_psl.1.0.0.UPF has been successfully fixed on the fly.
To avoid this message in the future you can permanently fix 
 your pseudo files following instructions given in: 
https://gitlab.com/QEF/q-e/blob/master/upftools/how_to_fix_upf.md
               file Al.pbe-nl-kjpaw_psl.1.0.0.UPF: wavefunction(s)  3S 3P renormalized

     Subspace diagonalization in iterative solution of the eigenvalue problem:
     a serial algorithm will be used

 
     Parallelization info
     --------------------
     sticks:   dense  smooth     PW     G-vecs:    dense   smooth      PW
     Min          13      13      5                  155      155      41
     Max          14      14      6                  157      157      44
     Sum         261     261    109                 3119     3119     847
 


     bravais-lattice index     =            0
     lattice parameter (alat)  =       4.0400  a.u.
     unit-cell volume          =      65.9393 (a.u.)^3
     number of atoms/cell      =            4
     number of atomic types    =            1
     number of electrons       =        12.00
     number of Kohn-Sham states=           10
     kinetic-energy cutoff     =      66.0000  Ry
     charge density cutoff     =     200.0000  Ry
     convergence threshold     =      1.0E-06
     mixing beta               =       0.1000
     number of iterations used =           10  TF        mixing
     Exchange-correlation      = SLA PW PBX PBC ( 1  4  3  4 0 0)

     celldm(1)=   4.040000  celldm(2)=   0.000000  celldm(3)=   0.000000
     celldm(4)=   0.000000  celldm(5)=   0.000000  celldm(6)=   0.000000

     crystal axes: (cart. coord. in units of alat)
               a(1) = (   1.000000   0.000000   0.000000 )  
               a(2) = (   0.000000   1.000000   0.000000 )  
               a(3) = (   0.000000   0.000000   1.000000 )  

     reciprocal axes: (cart. coord. in units 2 pi/alat)
               b(1) = (  1.000000  0.000000  0.000000 )  
               b(2) = (  0.000000  1.000000  0.000000 )  
               b(3) = (  0.000000  0.000000  1.000000 )  


     PseudoPot. # 1 for Al read from file:
     /rds/homes/b/bxp912/pp/Al.pbe-nl-kjpaw_psl.1.0.0.UPF
     MD5 check sum: 339dbea23cf3ab9a065ad45c0f9085d7
     Pseudo is Projector augmented-wave + core cor, Zval =  3.0
     Generated using "atomic" code by A. Dal Corso v.5.1
     Shape of augmentation charge: PSQ
     Using radial grid of 1135 points,  4 beta functions with: 
                l(1) =   0
                l(2) =   0
                l(3) =   1
                l(4) =   1
     Q(r) pseudized with 0 coefficients 


     atomic species   valence    mass     pseudopotential
        Al             3.00    26.98200     Al( 1.00)

     No symmetry found



   Cartesian axes

     site n.     atom                  positions (alat units)
         1           Al  tau(   1) = (  -0.0001235   0.0000359   0.0002572  )
         2           Al  tau(   2) = (   0.5003009   0.4992819   0.0002658  )
         3           Al  tau(   3) = (   0.4996490   0.0001153   0.5011170  )
         4           Al  tau(   4) = (  -0.0000756   0.5008267   0.5006943  )

     number of k points=    32  Marzari-Vanderbilt smearing, width (Ry)=  0.0200
                       cart. coord. in units 2pi/alat
        k(    1) = (   0.1250000   0.1250000   0.1250000), wk =   0.0625000
        k(    2) = (   0.1250000   0.1250000   0.3750000), wk =   0.0625000
        k(    3) = (   0.1250000   0.3750000   0.3750000), wk =   0.0625000
        k(    4) = (   0.3750000   0.3750000   0.3750000), wk =   0.0625000
        k(    5) = (  -0.1250000  -0.1250000   0.1250000), wk =   0.0625000
        k(    6) = (  -0.1250000   0.1250000  -0.1250000), wk =   0.0625000
        k(    7) = (   0.1250000  -0.1250000  -0.1250000), wk =   0.0625000
        k(    8) = (  -0.1250000  -0.1250000   0.3750000), wk =   0.0625000
        k(    9) = (  -0.1250000   0.1250000  -0.3750000), wk =   0.0625000
        k(   10) = (   0.1250000  -0.1250000  -0.3750000), wk =   0.0625000
        k(   11) = (   0.3750000  -0.1250000   0.1250000), wk =   0.0625000
        k(   12) = (  -0.3750000  -0.1250000  -0.1250000), wk =   0.0625000
        k(   13) = (   0.3750000   0.1250000  -0.1250000), wk =   0.0625000
        k(   14) = (  -0.3750000   0.1250000   0.1250000), wk =   0.0625000
        k(   15) = (  -0.1250000   0.3750000   0.1250000), wk =   0.0625000
        k(   16) = (  -0.1250000  -0.3750000  -0.1250000), wk =   0.0625000
        k(   17) = (   0.1250000   0.3750000  -0.1250000), wk =   0.0625000
        k(   18) = (   0.1250000  -0.3750000   0.1250000), wk =   0.0625000
        k(   19) = (  -0.1250000  -0.3750000   0.3750000), wk =   0.0625000
        k(   20) = (  -0.1250000   0.3750000  -0.3750000), wk =   0.0625000
        k(   21) = (   0.1250000  -0.3750000  -0.3750000), wk =   0.0625000
        k(   22) = (   0.3750000   0.1250000  -0.3750000), wk =   0.0625000
        k(   23) = (  -0.3750000  -0.1250000  -0.3750000), wk =   0.0625000
        k(   24) = (   0.3750000  -0.1250000   0.3750000), wk =   0.0625000
        k(   25) = (  -0.3750000   0.1250000   0.3750000), wk =   0.0625000
        k(   26) = (   0.3750000  -0.3750000   0.1250000), wk =   0.0625000
        k(   27) = (  -0.3750000  -0.3750000  -0.1250000), wk =   0.0625000
        k(   28) = (   0.3750000   0.3750000  -0.1250000), wk =   0.0625000
        k(   29) = (  -0.3750000   0.3750000   0.1250000), wk =   0.0625000
        k(   30) = (  -0.3750000  -0.3750000   0.3750000), wk =   0.0625000
        k(   31) = (  -0.3750000   0.3750000  -0.3750000), wk =   0.0625000
        k(   32) = (   0.3750000  -0.3750000  -0.3750000), wk =   0.0625000

     Dense  grid:     3119 G-vectors     FFT dimensions: (  20,  20,  20)

     Estimated max dynamical RAM per process >       0.60 MB

     Estimated total dynamical RAM >      12.06 MB

     Initial potential from superposition of free atoms

     starting charge   11.99084, renormalised to   12.00000
     Starting wfcs are   16 randomized atomic wfcs
     Checking if some PAW data can be deallocated... 

     total cpu time spent up to now is        0.7 secs

     Self-consistent Calculation

     iteration #  1     ecut=    66.00 Ry     beta= 0.10
     Davidson diagonalization with overlap
     ethr =  1.00E-02,  avg # of iterations =  4.9

     total cpu time spent up to now is        0.9 secs

     total energy              =    -141.65254852 Ry
     Harris-Foulkes estimate   =    -141.80682364 Ry
     estimated scf accuracy    <       0.18102092 Ry

     iteration #  2     ecut=    66.00 Ry     beta= 0.10
     Davidson diagonalization with overlap
     ethr =  1.51E-03,  avg # of iterations =  1.0

     total cpu time spent up to now is        1.0 secs

     total energy              =    -141.16251995 Ry
     Harris-Foulkes estimate   =    -141.65507772 Ry
     estimated scf accuracy    <       0.15208170 Ry

     iteration #  3     ecut=    66.00 Ry     beta= 0.10
     Davidson diagonalization with overlap
     ethr =  1.27E-03,  avg # of iterations =  2.0

     total cpu time spent up to now is        1.1 secs

     total energy              =    -141.24365500 Ry
     Harris-Foulkes estimate   =    -141.25641838 Ry
     estimated scf accuracy    <       0.01575724 Ry

     iteration #  4     ecut=    66.00 Ry     beta= 0.10
     Davidson diagonalization with overlap
     ethr =  1.31E-04,  avg # of iterations =  1.0

     total cpu time spent up to now is        1.3 secs

     total energy              =    -141.24128930 Ry
     Harris-Foulkes estimate   =    -141.24410065 Ry
     estimated scf accuracy    <       0.01251121 Ry

     iteration #  5     ecut=    66.00 Ry     beta= 0.10
     Davidson diagonalization with overlap
     ethr =  1.04E-04,  avg # of iterations =  1.0

     total cpu time spent up to now is        1.3 secs

     total energy              =    -141.24333870 Ry
     Harris-Foulkes estimate   =    -141.24236803 Ry
     estimated scf accuracy    <       0.00074012 Ry

     iteration #  6     ecut=    66.00 Ry     beta= 0.10
     Davidson diagonalization with overlap
     ethr =  6.17E-06,  avg # of iterations =  2.8

     total cpu time spent up to now is        1.5 secs

     total energy              =    -141.24358839 Ry
     Harris-Foulkes estimate   =    -141.24360742 Ry
     estimated scf accuracy    <       0.00009040 Ry

     iteration #  7     ecut=    66.00 Ry     beta= 0.10
     Davidson diagonalization with overlap
     ethr =  7.53E-07,  avg # of iterations =  1.1

     total cpu time spent up to now is        1.6 secs

     total energy              =    -141.24254963 Ry
     Harris-Foulkes estimate   =    -141.24358957 Ry
     estimated scf accuracy    <       0.00007577 Ry

     iteration #  8     ecut=    66.00 Ry     beta= 0.10
     Davidson diagonalization with overlap
     ethr =  6.31E-07,  avg # of iterations =  2.9

     total cpu time spent up to now is        1.7 secs

     total energy              =    -141.24266385 Ry
     Harris-Foulkes estimate   =    -141.24262630 Ry
     estimated scf accuracy    <       0.00000851 Ry

     iteration #  9     ecut=    66.00 Ry     beta= 0.10
     Davidson diagonalization with overlap
     ethr =  7.09E-08,  avg # of iterations =  2.0

     total cpu time spent up to now is        1.8 secs

     total energy              =    -141.24257987 Ry
     Harris-Foulkes estimate   =    -141.24266498 Ry
     estimated scf accuracy    <       0.00000769 Ry

     iteration # 10     ecut=    66.00 Ry     beta= 0.10
     Davidson diagonalization with overlap
     ethr =  6.41E-08,  avg # of iterations =  3.0

     total cpu time spent up to now is        1.9 secs

     End of self-consistent calculation

          k = 0.1250 0.1250 0.1250 (   591 PWs)   bands (ev):

    30.9169  41.4380  41.4571  41.4759  52.4302  52.4504  52.4705  54.9345
    54.9443  54.9543

          k = 0.1250 0.1250 0.3750 (   599 PWs)   bands (ev):

    34.4097  39.0157  43.9437  43.9625  51.8136  51.8308  54.8798  54.8884
    55.6934  61.5181

          k = 0.1250 0.3750 0.3750 (   595 PWs)   bands (ev):

    37.4249  41.6594  41.6964  44.5513  50.4957  52.9084  52.9574  57.0480
    57.5699  60.7344

          k = 0.3750 0.3750 0.3750 (   606 PWs)   bands (ev):

    39.8903  43.9788  44.0168  44.0546  47.7768  47.8183  47.8598  51.6523
    66.9734  66.9781

          k =-0.1250-0.1250 0.1250 (   591 PWs)   bands (ev):

    30.9169  41.4420  41.4571  41.4719  52.4344  52.4503  52.4663  54.9366
    54.9444  54.9522

          k =-0.1250 0.1250-0.1250 (   591 PWs)   bands (ev):

    30.9169  41.4459  41.4571  41.4680  52.4385  52.4504  52.4621  54.9386
    54.9444  54.9502

          k = 0.1250-0.1250-0.1250 (   591 PWs)   bands (ev):

    30.9169  41.4438  41.4571  41.4701  52.4363  52.4504  52.4643  54.9375
    54.9444  54.9513

          k =-0.1250-0.1250 0.3750 (   599 PWs)   bands (ev):

    34.4097  39.0157  43.9437  43.9625  51.8136  51.8309  54.8798  54.8885
    55.6931  61.5181

          k =-0.1250 0.1250-0.3750 (   599 PWs)   bands (ev):

    34.4097  39.0157  43.9488  43.9574  51.8182  51.8261  54.8822  54.8861
    55.6932  61.5180

          k = 0.1250-0.1250-0.3750 (   599 PWs)   bands (ev):

    34.4097  39.0157  43.9488  43.9574  51.8182  51.8261  54.8821  54.8861
    55.6934  61.5182

          k = 0.3750-0.1250 0.1250 (   599 PWs)   bands (ev):

    34.4097  39.0156  43.9488  43.9575  51.8180  51.8260  54.8823  54.8863
    55.6933  61.5183

          k =-0.3750-0.1250-0.1250 (   599 PWs)   bands (ev):

    34.4097  39.0156  43.9451  43.9612  51.8149  51.8296  54.8801  54.8874
    55.6940  61.5182

          k = 0.3750 0.1250-0.1250 (   599 PWs)   bands (ev):

    34.4097  39.0156  43.9488  43.9575  51.8180  51.8260  54.8823  54.8863
    55.6934  61.5182

          k =-0.3750 0.1250 0.1250 (   599 PWs)   bands (ev):

    34.4097  39.0156  43.9451  43.9611  51.8150  51.8297  54.8802  54.8875
    55.6936  61.5182

          k =-0.1250 0.3750 0.1250 (   599 PWs)   bands (ev):

    34.4097  39.0155  43.9521  43.9545  51.8211  51.8233  54.8835  54.8846
    55.6933  61.5182

          k =-0.1250-0.3750-0.1250 (   599 PWs)   bands (ev):

    34.4097  39.0155  43.9486  43.9580  51.8178  51.8264  54.8820  54.8863
    55.6934  61.5182

          k = 0.1250 0.3750-0.1250 (   599 PWs)   bands (ev):

    34.4097  39.0155  43.9521  43.9545  51.8211  51.8233  54.8833  54.8845
    55.6937  61.5181

          k = 0.1250-0.3750 0.1250 (   599 PWs)   bands (ev):

    34.4097  39.0155  43.9486  43.9580  51.8178  51.8265  54.8819  54.8863
    55.6933  61.5182

          k =-0.1250-0.3750 0.3750 (   595 PWs)   bands (ev):

    37.4248  41.6679  41.6880  44.5511  50.4959  52.9194  52.9462  57.0474
    57.5708  60.7370

          k =-0.1250 0.3750-0.3750 (   595 PWs)   bands (ev):

    37.4248  41.6679  41.6880  44.5512  50.4958  52.9194  52.9461  57.0470
    57.5713  60.7358

          k = 0.1250-0.3750-0.3750 (   595 PWs)   bands (ev):

    37.4249  41.6594  41.6964  44.5513  50.4957  52.9084  52.9574  57.0476
    57.5701  60.7379

          k = 0.3750 0.1250-0.3750 (   595 PWs)   bands (ev):

    37.4248  41.6751  41.6807  44.5512  50.4957  52.9292  52.9367  57.0480
    57.5701  60.7381

          k =-0.3750-0.1250-0.3750 (   595 PWs)   bands (ev):

    37.4249  41.6671  41.6888  44.5511  50.4959  52.9186  52.9474  57.0482
    57.5697  60.7362

          k = 0.3750-0.1250 0.3750 (   595 PWs)   bands (ev):

    37.4248  41.6671  41.6888  44.5511  50.4958  52.9184  52.9473  57.0484
    57.5698  60.7362

          k =-0.3750 0.1250 0.3750 (   595 PWs)   bands (ev):

    37.4248  41.6751  41.6807  44.5512  50.4958  52.9293  52.9367  57.0477
    57.5701  60.7384

          k = 0.3750-0.3750 0.1250 (   595 PWs)   bands (ev):

    37.4249  41.6680  41.6878  44.5512  50.4955  52.9195  52.9460  57.0483
    57.5699  60.7352

          k =-0.3750-0.3750-0.1250 (   595 PWs)   bands (ev):

    37.4249  41.6563  41.6996  44.5511  50.4959  52.9040  52.9617  57.0462
    57.5718  60.7326

          k = 0.3750 0.3750-0.1250 (   595 PWs)   bands (ev):

    37.4249  41.6563  41.6996  44.5512  50.4957  52.9039  52.9616  57.0483
    57.5698  60.7328

          k =-0.3750 0.3750 0.1250 (   595 PWs)   bands (ev):

    37.4249  41.6680  41.6878  44.5512  50.4958  52.9197  52.9462  57.0436
    57.5744  60.7356

          k =-0.3750-0.3750 0.3750 (   606 PWs)   bands (ev):

    39.8902  43.9868  44.0168  44.0466  47.7855  47.8183  47.8511  51.6524
    66.9758  66.9768

          k =-0.3750 0.3750-0.3750 (   606 PWs)   bands (ev):

    39.8902  43.9945  44.0168  44.0388  47.7940  47.8183  47.8426  51.6524
    66.9755  66.9769

          k = 0.3750-0.3750-0.3750 (   606 PWs)   bands (ev):

    39.8902  43.9904  44.0167  44.0429  47.7896  47.8184  47.8472  51.6523
    66.9743  66.9787

     the Fermi energy is    52.6623 ev

!    total energy              =    -141.24258844 Ry
     Harris-Foulkes estimate   =    -141.24258928 Ry
     estimated scf accuracy    <       0.00000093 Ry

     total all-electron energy =     -1925.813716 Ry

     The total energy is the sum of the following terms:

     one-electron contribution =      58.67269767 Ry
     hartree contribution      =       0.21196641 Ry
     xc contribution           =     -17.28524346 Ry
     ewald contribution        =     -40.85514768 Ry
     one-center paw contrib.   =    -141.98624496 Ry
     smearing contrib. (-TS)   =      -0.00061642 Ry

     convergence has been achieved in  10 iterations

     Forces acting on atoms (cartesian axes, Ry/au):

     atom    1 type  1   force =     0.00202386   -0.00041116    0.01638770
     atom    2 type  1   force =    -0.00328255    0.00371253    0.01635194
     atom    3 type  1   force =    -0.00056729   -0.00064523   -0.01727544
     atom    4 type  1   force =     0.00182597   -0.00265614   -0.01546420

     Total force =     0.033369     Total SCF correction =     0.000024


     Computing stress (Cartesian axis) and pressure

          total   stress  (Ry/bohr**3)                   (kbar)     P=59670.03
   0.40563433   0.00000093   0.00000092      59670.86      0.14      0.14
   0.00000093   0.40562288  -0.00000091          0.14  59669.18     -0.13
   0.00000092  -0.00000091   0.40562882          0.14     -0.13  59670.05


     Writing output data file fe_scf_fcc_2.save/
 
     init_run     :      0.11s CPU      0.15s WALL (       1 calls)
     electrons    :      1.12s CPU      1.23s WALL (       1 calls)
     forces       :      0.01s CPU      0.01s WALL (       1 calls)
     stress       :      0.01s CPU      0.01s WALL (       1 calls)

     Called by init_run:
     wfcinit      :      0.05s CPU      0.05s WALL (       1 calls)
     potinit      :      0.01s CPU      0.02s WALL (       1 calls)
     hinit0       :      0.05s CPU      0.07s WALL (       1 calls)

     Called by electrons:
     c_bands      :      0.85s CPU      0.94s WALL (      10 calls)
     sum_band     :      0.12s CPU      0.14s WALL (      10 calls)
     v_of_rho     :      0.01s CPU      0.01s WALL (      11 calls)
     newd         :      0.00s CPU      0.00s WALL (      11 calls)
     PAW_pot      :      0.13s CPU      0.14s WALL (      11 calls)
     mix_rho      :      0.00s CPU      0.00s WALL (      10 calls)

     Called by c_bands:
     init_us_2    :      0.01s CPU      0.01s WALL (     736 calls)
     cegterg      :      0.81s CPU      0.89s WALL (     320 calls)

     Called by sum_band:
     sum_band:bec :      0.00s CPU      0.00s WALL (     320 calls)
     addusdens    :      0.00s CPU      0.00s WALL (      10 calls)

     Called by *egterg:
     h_psi        :      0.57s CPU      0.63s WALL (    1044 calls)
     s_psi        :      0.01s CPU      0.01s WALL (    1044 calls)
     g_psi        :      0.00s CPU      0.00s WALL (     692 calls)
     cdiaghg      :      0.17s CPU      0.19s WALL (    1012 calls)

     Called by h_psi:
     h_psi:pot    :      0.57s CPU      0.63s WALL (    1044 calls)
     h_psi:calbec :      0.05s CPU      0.06s WALL (    1044 calls)
     vloc_psi     :      0.50s CPU      0.55s WALL (    1044 calls)
     add_vuspsi   :      0.01s CPU      0.01s WALL (    1044 calls)

     General routines
     calbec       :      0.08s CPU      0.09s WALL (    1524 calls)
     fft          :      0.05s CPU      0.07s WALL (     147 calls)
     ffts         :      0.00s CPU      0.00s WALL (      10 calls)
     fftw         :      0.56s CPU      0.62s WALL (   20744 calls)
 
     Parallel routines
     fft_scatt_xy :      0.03s CPU      0.04s WALL (   20901 calls)
     fft_scatt_yz :      0.48s CPU      0.52s WALL (   20901 calls)
 
     PWSCF        :     1.82s CPU         2.14s WALL

 
   This run was terminated on:  19: 2:47  22Oct2019            

=------------------------------------------------------------------------------=
   JOB DONE.
=------------------------------------------------------------------------------=
