
     Program PWSCF v.6.3 starts on 22Oct2019 at 19: 5:34 

     This program is part of the open-source Quantum ESPRESSO suite
     for quantum simulation of materials; please cite
         "P. Giannozzi et al., J. Phys.:Condens. Matter 21 395502 (2009);
         "P. Giannozzi et al., J. Phys.:Condens. Matter 29 465901 (2017);
          URL http://www.quantum-espresso.org", 
     in publications or presentations arising from this work. More details at
     http://www.quantum-espresso.org/quote

     Parallel version (MPI & OpenMP), running on      20 processor cores
     Number of MPI processes:                20
     Threads/MPI process:                     1

     MPI processes distributed on     1 nodes
     R & G space division:  proc/nbgrp/npool/nimage =      20
     Reading input from /rds/homes/b/bxp912/jobs/20191022_test/wd/runpwscf/file_10116.in
Warning: card &IONS ignored
Warning: card ION_DYNAMICS = 'BFGS', ignored
Warning: card / ignored
Warning: card &CELL ignored
Warning: card CELL_DYNAMICS = 'BFGS', ignored
Warning: card CELL_FACTOR = 2.0, ignored
Warning: card PRESS = 0.0, ignored
Warning: card / ignored

     Current dimensions of program PWSCF are:
     Max number of different atomic species (ntypx) = 10
     Max number of k-points (npk) =  40000
     Max angular momentum in pseudopotentials (lmaxx) =  3
     Message from routine read_upf::
     Pseudo file /rds/homes/b/bxp912/pp/Al.pbe-nl-kjpaw_psl.1.0.0.UPF has been successfully fixed on the fly.
To avoid this message in the future you can permanently fix 
 your pseudo files following instructions given in: 
https://gitlab.com/QEF/q-e/blob/master/upftools/how_to_fix_upf.md
               file Al.pbe-nl-kjpaw_psl.1.0.0.UPF: wavefunction(s)  3S 3P renormalized

     Subspace diagonalization in iterative solution of the eigenvalue problem:
     a serial algorithm will be used

 
     Parallelization info
     --------------------
     sticks:   dense  smooth     PW     G-vecs:    dense   smooth      PW
     Min          10      10      7                  114      114      64
     Max          12      12      9                  117      117      67
     Sum         213     213    145                 2301     2301    1309
 


     bravais-lattice index     =            0
     lattice parameter (alat)  =       4.0400  a.u.
     unit-cell volume          =      65.9393 (a.u.)^3
     number of atoms/cell      =            4
     number of atomic types    =            1
     number of electrons       =        12.00
     number of Kohn-Sham states=           10
     kinetic-energy cutoff     =      90.0000  Ry
     charge density cutoff     =     160.0000  Ry
     convergence threshold     =      1.0E-06
     mixing beta               =       0.1000
     number of iterations used =           10  TF        mixing
     Exchange-correlation      = SLA PW PBX PBC ( 1  4  3  4 0 0)

     celldm(1)=   4.040000  celldm(2)=   0.000000  celldm(3)=   0.000000
     celldm(4)=   0.000000  celldm(5)=   0.000000  celldm(6)=   0.000000

     crystal axes: (cart. coord. in units of alat)
               a(1) = (   1.000000   0.000000   0.000000 )  
               a(2) = (   0.000000   1.000000   0.000000 )  
               a(3) = (   0.000000   0.000000   1.000000 )  

     reciprocal axes: (cart. coord. in units 2 pi/alat)
               b(1) = (  1.000000  0.000000  0.000000 )  
               b(2) = (  0.000000  1.000000  0.000000 )  
               b(3) = (  0.000000  0.000000  1.000000 )  


     PseudoPot. # 1 for Al read from file:
     /rds/homes/b/bxp912/pp/Al.pbe-nl-kjpaw_psl.1.0.0.UPF
     MD5 check sum: 339dbea23cf3ab9a065ad45c0f9085d7
     Pseudo is Projector augmented-wave + core cor, Zval =  3.0
     Generated using "atomic" code by A. Dal Corso v.5.1
     Shape of augmentation charge: PSQ
     Using radial grid of 1135 points,  4 beta functions with: 
                l(1) =   0
                l(2) =   0
                l(3) =   1
                l(4) =   1
     Q(r) pseudized with 0 coefficients 


     atomic species   valence    mass     pseudopotential
        Al             3.00    26.98200     Al( 1.00)

     No symmetry found



   Cartesian axes

     site n.     atom                  positions (alat units)
         1           Al  tau(   1) = (  -0.0001235   0.0000359   0.0002572  )
         2           Al  tau(   2) = (   0.5003009   0.4992819   0.0002658  )
         3           Al  tau(   3) = (   0.4996490   0.0001153   0.5011170  )
         4           Al  tau(   4) = (  -0.0000756   0.5008267   0.5006943  )

     number of k points=    32  Marzari-Vanderbilt smearing, width (Ry)=  0.0200
                       cart. coord. in units 2pi/alat
        k(    1) = (   0.1250000   0.1250000   0.1250000), wk =   0.0625000
        k(    2) = (   0.1250000   0.1250000   0.3750000), wk =   0.0625000
        k(    3) = (   0.1250000   0.3750000   0.3750000), wk =   0.0625000
        k(    4) = (   0.3750000   0.3750000   0.3750000), wk =   0.0625000
        k(    5) = (  -0.1250000  -0.1250000   0.1250000), wk =   0.0625000
        k(    6) = (  -0.1250000   0.1250000  -0.1250000), wk =   0.0625000
        k(    7) = (   0.1250000  -0.1250000  -0.1250000), wk =   0.0625000
        k(    8) = (  -0.1250000  -0.1250000   0.3750000), wk =   0.0625000
        k(    9) = (  -0.1250000   0.1250000  -0.3750000), wk =   0.0625000
        k(   10) = (   0.1250000  -0.1250000  -0.3750000), wk =   0.0625000
        k(   11) = (   0.3750000  -0.1250000   0.1250000), wk =   0.0625000
        k(   12) = (  -0.3750000  -0.1250000  -0.1250000), wk =   0.0625000
        k(   13) = (   0.3750000   0.1250000  -0.1250000), wk =   0.0625000
        k(   14) = (  -0.3750000   0.1250000   0.1250000), wk =   0.0625000
        k(   15) = (  -0.1250000   0.3750000   0.1250000), wk =   0.0625000
        k(   16) = (  -0.1250000  -0.3750000  -0.1250000), wk =   0.0625000
        k(   17) = (   0.1250000   0.3750000  -0.1250000), wk =   0.0625000
        k(   18) = (   0.1250000  -0.3750000   0.1250000), wk =   0.0625000
        k(   19) = (  -0.1250000  -0.3750000   0.3750000), wk =   0.0625000
        k(   20) = (  -0.1250000   0.3750000  -0.3750000), wk =   0.0625000
        k(   21) = (   0.1250000  -0.3750000  -0.3750000), wk =   0.0625000
        k(   22) = (   0.3750000   0.1250000  -0.3750000), wk =   0.0625000
        k(   23) = (  -0.3750000  -0.1250000  -0.3750000), wk =   0.0625000
        k(   24) = (   0.3750000  -0.1250000   0.3750000), wk =   0.0625000
        k(   25) = (  -0.3750000   0.1250000   0.3750000), wk =   0.0625000
        k(   26) = (   0.3750000  -0.3750000   0.1250000), wk =   0.0625000
        k(   27) = (  -0.3750000  -0.3750000  -0.1250000), wk =   0.0625000
        k(   28) = (   0.3750000   0.3750000  -0.1250000), wk =   0.0625000
        k(   29) = (  -0.3750000   0.3750000   0.1250000), wk =   0.0625000
        k(   30) = (  -0.3750000  -0.3750000   0.3750000), wk =   0.0625000
        k(   31) = (  -0.3750000   0.3750000  -0.3750000), wk =   0.0625000
        k(   32) = (   0.3750000  -0.3750000  -0.3750000), wk =   0.0625000

     Dense  grid:     2301 G-vectors     FFT dimensions: (  18,  18,  18)

     Estimated max dynamical RAM per process >       0.69 MB

     Estimated total dynamical RAM >      13.78 MB

     Initial potential from superposition of free atoms

     starting charge   11.99084, renormalised to   12.00000
     Starting wfcs are   16 randomized atomic wfcs
     Checking if some PAW data can be deallocated... 

     total cpu time spent up to now is        0.8 secs

     Self-consistent Calculation

     iteration #  1     ecut=    90.00 Ry     beta= 0.10
     Davidson diagonalization with overlap
     ethr =  1.00E-02,  avg # of iterations =  4.9

     total cpu time spent up to now is        1.0 secs

     total energy              =    -141.65277243 Ry
     Harris-Foulkes estimate   =    -141.80705147 Ry
     estimated scf accuracy    <       0.18123031 Ry

     iteration #  2     ecut=    90.00 Ry     beta= 0.10
     Davidson diagonalization with overlap
     ethr =  1.51E-03,  avg # of iterations =  1.0

     total cpu time spent up to now is        1.1 secs

     total energy              =    -141.16253149 Ry
     Harris-Foulkes estimate   =    -141.65534841 Ry
     estimated scf accuracy    <       0.15200801 Ry

     iteration #  3     ecut=    90.00 Ry     beta= 0.10
     Davidson diagonalization with overlap
     ethr =  1.27E-03,  avg # of iterations =  2.0

     total cpu time spent up to now is        1.2 secs

     total energy              =    -141.24401076 Ry
     Harris-Foulkes estimate   =    -141.25534436 Ry
     estimated scf accuracy    <       0.01558800 Ry

     iteration #  4     ecut=    90.00 Ry     beta= 0.10
     Davidson diagonalization with overlap
     ethr =  1.30E-04,  avg # of iterations =  1.0

     total cpu time spent up to now is        1.3 secs

     total energy              =    -141.24162734 Ry
     Harris-Foulkes estimate   =    -141.24441735 Ry
     estimated scf accuracy    <       0.01252738 Ry

     iteration #  5     ecut=    90.00 Ry     beta= 0.10
     Davidson diagonalization with overlap
     ethr =  1.04E-04,  avg # of iterations =  1.0

     total cpu time spent up to now is        1.4 secs

     total energy              =    -141.24339133 Ry
     Harris-Foulkes estimate   =    -141.24269137 Ry
     estimated scf accuracy    <       0.00083391 Ry

     iteration #  6     ecut=    90.00 Ry     beta= 0.10
     Davidson diagonalization with overlap
     ethr =  6.95E-06,  avg # of iterations =  2.4

     total cpu time spent up to now is        1.5 secs

     total energy              =    -141.24366622 Ry
     Harris-Foulkes estimate   =    -141.24365160 Ry
     estimated scf accuracy    <       0.00013229 Ry

     iteration #  7     ecut=    90.00 Ry     beta= 0.10
     Davidson diagonalization with overlap
     ethr =  1.10E-06,  avg # of iterations =  1.2

     total cpu time spent up to now is        1.6 secs

     total energy              =    -141.24284588 Ry
     Harris-Foulkes estimate   =    -141.24366844 Ry
     estimated scf accuracy    <       0.00011465 Ry

     iteration #  8     ecut=    90.00 Ry     beta= 0.10
     Davidson diagonalization with overlap
     ethr =  9.55E-07,  avg # of iterations =  2.1

     total cpu time spent up to now is        1.7 secs

     total energy              =    -141.24301456 Ry
     Harris-Foulkes estimate   =    -141.24291592 Ry
     estimated scf accuracy    <       0.00006659 Ry

     iteration #  9     ecut=    90.00 Ry     beta= 0.10
     Davidson diagonalization with overlap
     ethr =  5.55E-07,  avg # of iterations =  2.0

     total cpu time spent up to now is        1.8 secs

     total energy              =    -141.24287716 Ry
     Harris-Foulkes estimate   =    -141.24302154 Ry
     estimated scf accuracy    <       0.00000944 Ry

     iteration # 10     ecut=    90.00 Ry     beta= 0.10
     Davidson diagonalization with overlap
     ethr =  7.87E-08,  avg # of iterations =  3.0

     total cpu time spent up to now is        2.0 secs

     total energy              =    -141.24288807 Ry
     Harris-Foulkes estimate   =    -141.24288901 Ry
     estimated scf accuracy    <       0.00000326 Ry

     iteration # 11     ecut=    90.00 Ry     beta= 0.10
     Davidson diagonalization with overlap
     ethr =  2.72E-08,  avg # of iterations =  1.0

     total cpu time spent up to now is        2.1 secs

     total energy              =    -141.24288642 Ry
     Harris-Foulkes estimate   =    -141.24288812 Ry
     estimated scf accuracy    <       0.00000103 Ry

     iteration # 12     ecut=    90.00 Ry     beta= 0.10
     Davidson diagonalization with overlap
     ethr =  8.62E-09,  avg # of iterations =  1.9

     total cpu time spent up to now is        2.2 secs

     End of self-consistent calculation

          k = 0.1250 0.1250 0.1250 (   952 PWs)   bands (ev):

    30.9147  41.4373  41.4564  41.4751  52.4292  52.4495  52.4696  54.9319
    54.9418  54.9518

          k = 0.1250 0.1250 0.3750 (   950 PWs)   bands (ev):

    34.4074  39.0137  43.9426  43.9614  51.8118  51.8291  54.8780  54.8866
    55.6924  61.5172

          k = 0.1250 0.3750 0.3750 (   953 PWs)   bands (ev):

    37.4225  41.6572  41.6942  44.5493  50.4942  52.9068  52.9559  57.0467
    57.5686  60.7340

          k = 0.3750 0.3750 0.3750 (   958 PWs)   bands (ev):

    39.8880  43.9767  44.0147  44.0524  47.7752  47.8167  47.8582  51.6507
    66.9730  66.9771

          k =-0.1250-0.1250 0.1250 (   952 PWs)   bands (ev):

    30.9147  41.4413  41.4563  41.4712  52.4334  52.4494  52.4654  54.9340
    54.9418  54.9497

          k =-0.1250 0.1250-0.1250 (   952 PWs)   bands (ev):

    30.9147  41.4451  41.4563  41.4673  52.4376  52.4494  52.4612  54.9360
    54.9418  54.9477

          k = 0.1250-0.1250-0.1250 (   952 PWs)   bands (ev):

    30.9147  41.4431  41.4564  41.4693  52.4354  52.4495  52.4634  54.9349
    54.9418  54.9487

          k =-0.1250-0.1250 0.3750 (   950 PWs)   bands (ev):

    34.4074  39.0137  43.9425  43.9614  51.8119  51.8291  54.8780  54.8867
    55.6922  61.5173

          k =-0.1250 0.1250-0.3750 (   950 PWs)   bands (ev):

    34.4074  39.0137  43.9477  43.9563  51.8165  51.8244  54.8803  54.8843
    55.6923  61.5173

          k = 0.1250-0.1250-0.3750 (   950 PWs)   bands (ev):

    34.4074  39.0137  43.9477  43.9563  51.8165  51.8244  54.8803  54.8843
    55.6925  61.5169

          k = 0.3750-0.1250 0.1250 (   950 PWs)   bands (ev):

    34.4075  39.0136  43.9476  43.9564  51.8163  51.8243  54.8805  54.8845
    55.6924  61.5173

          k =-0.3750-0.1250-0.1250 (   950 PWs)   bands (ev):

    34.4075  39.0136  43.9440  43.9600  51.8132  51.8279  54.8783  54.8856
    55.6930  61.5174

          k = 0.3750 0.1250-0.1250 (   950 PWs)   bands (ev):

    34.4075  39.0136  43.9477  43.9564  51.8162  51.8243  54.8805  54.8845
    55.6925  61.5174

          k =-0.3750 0.1250 0.1250 (   950 PWs)   bands (ev):

    34.4075  39.0136  43.9440  43.9600  51.8132  51.8279  54.8783  54.8857
    55.6927  61.5173

          k =-0.1250 0.3750 0.1250 (   950 PWs)   bands (ev):

    34.4075  39.0135  43.9510  43.9534  51.8194  51.8216  54.8816  54.8828
    55.6924  61.5173

          k =-0.1250-0.3750-0.1250 (   950 PWs)   bands (ev):

    34.4075  39.0135  43.9475  43.9569  51.8161  51.8247  54.8801  54.8845
    55.6925  61.5173

          k = 0.1250 0.3750-0.1250 (   950 PWs)   bands (ev):

    34.4075  39.0135  43.9510  43.9534  51.8193  51.8215  54.8815  54.8827
    55.6927  61.5172

          k = 0.1250-0.3750 0.1250 (   950 PWs)   bands (ev):

    34.4075  39.0135  43.9474  43.9569  51.8161  51.8247  54.8801  54.8844
    55.6923  61.5173

          k =-0.1250-0.3750 0.3750 (   953 PWs)   bands (ev):

    37.4225  41.6657  41.6859  44.5492  50.4944  52.9179  52.9447  57.0461
    57.5695  60.7365

          k =-0.1250 0.3750-0.3750 (   953 PWs)   bands (ev):

    37.4225  41.6657  41.6859  44.5492  50.4943  52.9178  52.9446  57.0457
    57.5700  60.7355

          k = 0.1250-0.3750-0.3750 (   953 PWs)   bands (ev):

    37.4225  41.6573  41.6942  44.5493  50.4942  52.9068  52.9559  57.0463
    57.5688  60.7357

          k = 0.3750 0.1250-0.3750 (   953 PWs)   bands (ev):

    37.4225  41.6729  41.6785  44.5492  50.4942  52.9277  52.9351  57.0468
    57.5688  60.7367

          k =-0.3750-0.1250-0.3750 (   953 PWs)   bands (ev):

    37.4225  41.6649  41.6866  44.5491  50.4944  52.9170  52.9459  57.0469
    57.5684  60.7354

          k = 0.3750-0.1250 0.3750 (   953 PWs)   bands (ev):

    37.4225  41.6649  41.6866  44.5491  50.4943  52.9169  52.9458  57.0471
    57.5685  60.7343

          k =-0.3750 0.1250 0.3750 (   953 PWs)   bands (ev):

    37.4225  41.6729  41.6785  44.5492  50.4943  52.9278  52.9352  57.0464
    57.5688  60.7369

          k = 0.3750-0.3750 0.1250 (   953 PWs)   bands (ev):

    37.4226  41.6658  41.6857  44.5493  50.4940  52.9181  52.9445  57.0470
    57.5686  60.7366

          k =-0.3750-0.3750-0.1250 (   953 PWs)   bands (ev):

    37.4226  41.6541  41.6974  44.5491  50.4944  52.9024  52.9602  57.0449
    57.5706  60.7364

          k = 0.3750 0.3750-0.1250 (   953 PWs)   bands (ev):

    37.4226  41.6541  41.6975  44.5492  50.4942  52.9023  52.9601  57.0470
    57.5685  60.7315

          k =-0.3750 0.3750 0.1250 (   953 PWs)   bands (ev):

    37.4226  41.6658  41.6856  44.5492  50.4943  52.9182  52.9446  57.0424
    57.5731  60.7365

          k =-0.3750-0.3750 0.3750 (   958 PWs)   bands (ev):

    39.8880  43.9846  44.0147  44.0444  47.7839  47.8166  47.8495  51.6508
    66.9752  66.9780

          k =-0.3750 0.3750-0.3750 (   958 PWs)   bands (ev):

    39.8880  43.9924  44.0146  44.0367  47.7924  47.8167  47.8410  51.6508
    66.9742  66.9771

          k = 0.3750-0.3750-0.3750 (   958 PWs)   bands (ev):

    39.8880  43.9882  44.0146  44.0408  47.7880  47.8168  47.8456  51.6507
    66.9755  66.9781

     the Fermi energy is    52.6612 ev

!    total energy              =    -141.24288651 Ry
     Harris-Foulkes estimate   =    -141.24288655 Ry
     estimated scf accuracy    <       0.00000032 Ry

     total all-electron energy =     -1925.814014 Ry

     The total energy is the sum of the following terms:

     one-electron contribution =      58.67282474 Ry
     hartree contribution      =       0.21193568 Ry
     xc contribution           =     -17.28534056 Ry
     ewald contribution        =     -40.85514931 Ry
     one-center paw contrib.   =    -141.98653112 Ry
     smearing contrib. (-TS)   =      -0.00062594 Ry

     convergence has been achieved in  12 iterations

     Forces acting on atoms (cartesian axes, Ry/au):

     atom    1 type  1   force =     0.00201749   -0.00038891    0.01643806
     atom    2 type  1   force =    -0.00324821    0.00371000    0.01640540
     atom    3 type  1   force =    -0.00056160   -0.00069218   -0.01729863
     atom    4 type  1   force =     0.00179232   -0.00262891   -0.01554483

     Total force =     0.033462     Total SCF correction =     0.000004


     Computing stress (Cartesian axis) and pressure

          total   stress  (Ry/bohr**3)                   (kbar)     P=59673.64
   0.40565870   0.00000122   0.00000075      59674.45      0.18      0.11
   0.00000122   0.40564737  -0.00000115          0.18  59672.78     -0.17
   0.00000075  -0.00000115   0.40565357          0.11     -0.17  59673.69


     Writing output data file fe_scf_fcc_2.save/
 
     init_run     :      0.13s CPU      0.15s WALL (       1 calls)
     electrons    :      1.29s CPU      1.44s WALL (       1 calls)
     forces       :      0.01s CPU      0.01s WALL (       1 calls)
     stress       :      0.01s CPU      0.01s WALL (       1 calls)

     Called by init_run:
     wfcinit      :      0.05s CPU      0.06s WALL (       1 calls)
     potinit      :      0.01s CPU      0.02s WALL (       1 calls)
     hinit0       :      0.06s CPU      0.07s WALL (       1 calls)

     Called by electrons:
     c_bands      :      0.99s CPU      1.09s WALL (      12 calls)
     sum_band     :      0.14s CPU      0.17s WALL (      12 calls)
     v_of_rho     :      0.01s CPU      0.01s WALL (      13 calls)
     newd         :      0.00s CPU      0.00s WALL (      13 calls)
     PAW_pot      :      0.15s CPU      0.17s WALL (      13 calls)
     mix_rho      :      0.00s CPU      0.00s WALL (      12 calls)

     Called by c_bands:
     init_us_2    :      0.01s CPU      0.01s WALL (     864 calls)
     cegterg      :      0.95s CPU      1.04s WALL (     384 calls)

     Called by sum_band:
     sum_band:bec :      0.00s CPU      0.00s WALL (     384 calls)
     addusdens    :      0.00s CPU      0.00s WALL (      12 calls)

     Called by *egterg:
     h_psi        :      0.69s CPU      0.76s WALL (    1166 calls)
     s_psi        :      0.01s CPU      0.01s WALL (    1166 calls)
     g_psi        :      0.00s CPU      0.00s WALL (     750 calls)
     cdiaghg      :      0.18s CPU      0.20s WALL (    1134 calls)

     Called by h_psi:
     h_psi:pot    :      0.69s CPU      0.76s WALL (    1166 calls)
     h_psi:calbec :      0.06s CPU      0.07s WALL (    1166 calls)
     vloc_psi     :      0.61s CPU      0.67s WALL (    1166 calls)
     add_vuspsi   :      0.01s CPU      0.01s WALL (    1166 calls)

     General routines
     calbec       :      0.09s CPU      0.10s WALL (    1710 calls)
     fft          :      0.06s CPU      0.06s WALL (     169 calls)
     ffts         :      0.00s CPU      0.00s WALL (      12 calls)
     fftw         :      0.68s CPU      0.76s WALL (   23678 calls)
 
     Parallel routines
     fft_scatt_xy :      0.04s CPU      0.04s WALL (   23859 calls)
     fft_scatt_yz :      0.59s CPU      0.65s WALL (   23859 calls)
 
     PWSCF        :     2.12s CPU         2.47s WALL

 
   This run was terminated on:  19: 5:37  22Oct2019            

=------------------------------------------------------------------------------=
   JOB DONE.
=------------------------------------------------------------------------------=
