
     Program PWSCF v.6.3 starts on 22Oct2019 at 19: 2:22 

     This program is part of the open-source Quantum ESPRESSO suite
     for quantum simulation of materials; please cite
         "P. Giannozzi et al., J. Phys.:Condens. Matter 21 395502 (2009);
         "P. Giannozzi et al., J. Phys.:Condens. Matter 29 465901 (2017);
          URL http://www.quantum-espresso.org", 
     in publications or presentations arising from this work. More details at
     http://www.quantum-espresso.org/quote

     Parallel version (MPI & OpenMP), running on      20 processor cores
     Number of MPI processes:                20
     Threads/MPI process:                     1

     MPI processes distributed on     1 nodes
     R & G space division:  proc/nbgrp/npool/nimage =      20
     Reading input from /rds/homes/b/bxp912/jobs/20191022_test/wd/runpwscf/file_10046.in
Warning: card &IONS ignored
Warning: card ION_DYNAMICS = 'BFGS', ignored
Warning: card / ignored
Warning: card &CELL ignored
Warning: card CELL_DYNAMICS = 'BFGS', ignored
Warning: card CELL_FACTOR = 2.0, ignored
Warning: card PRESS = 0.0, ignored
Warning: card / ignored

     Current dimensions of program PWSCF are:
     Max number of different atomic species (ntypx) = 10
     Max number of k-points (npk) =  40000
     Max angular momentum in pseudopotentials (lmaxx) =  3
     Message from routine read_upf::
     Pseudo file /rds/homes/b/bxp912/pp/Al.pbe-nl-kjpaw_psl.1.0.0.UPF has been successfully fixed on the fly.
To avoid this message in the future you can permanently fix 
 your pseudo files following instructions given in: 
https://gitlab.com/QEF/q-e/blob/master/upftools/how_to_fix_upf.md
               file Al.pbe-nl-kjpaw_psl.1.0.0.UPF: wavefunction(s)  3S 3P renormalized

     Subspace diagonalization in iterative solution of the eigenvalue problem:
     a serial algorithm will be used

 
     Parallelization info
     --------------------
     sticks:   dense  smooth     PW     G-vecs:    dense   smooth      PW
     Min          13      13      6                  155      155      50
     Max          14      14      7                  157      157      53
     Sum         261     261    121                 3119     3119    1021
 


     bravais-lattice index     =            0
     lattice parameter (alat)  =       4.0400  a.u.
     unit-cell volume          =      65.9393 (a.u.)^3
     number of atoms/cell      =            4
     number of atomic types    =            1
     number of electrons       =        12.00
     number of Kohn-Sham states=           10
     kinetic-energy cutoff     =      74.0000  Ry
     charge density cutoff     =     200.0000  Ry
     convergence threshold     =      1.0E-06
     mixing beta               =       0.1000
     number of iterations used =           10  TF        mixing
     Exchange-correlation      = SLA PW PBX PBC ( 1  4  3  4 0 0)

     celldm(1)=   4.040000  celldm(2)=   0.000000  celldm(3)=   0.000000
     celldm(4)=   0.000000  celldm(5)=   0.000000  celldm(6)=   0.000000

     crystal axes: (cart. coord. in units of alat)
               a(1) = (   1.000000   0.000000   0.000000 )  
               a(2) = (   0.000000   1.000000   0.000000 )  
               a(3) = (   0.000000   0.000000   1.000000 )  

     reciprocal axes: (cart. coord. in units 2 pi/alat)
               b(1) = (  1.000000  0.000000  0.000000 )  
               b(2) = (  0.000000  1.000000  0.000000 )  
               b(3) = (  0.000000  0.000000  1.000000 )  


     PseudoPot. # 1 for Al read from file:
     /rds/homes/b/bxp912/pp/Al.pbe-nl-kjpaw_psl.1.0.0.UPF
     MD5 check sum: 339dbea23cf3ab9a065ad45c0f9085d7
     Pseudo is Projector augmented-wave + core cor, Zval =  3.0
     Generated using "atomic" code by A. Dal Corso v.5.1
     Shape of augmentation charge: PSQ
     Using radial grid of 1135 points,  4 beta functions with: 
                l(1) =   0
                l(2) =   0
                l(3) =   1
                l(4) =   1
     Q(r) pseudized with 0 coefficients 


     atomic species   valence    mass     pseudopotential
        Al             3.00    26.98200     Al( 1.00)

     No symmetry found



   Cartesian axes

     site n.     atom                  positions (alat units)
         1           Al  tau(   1) = (  -0.0001235   0.0000359   0.0002572  )
         2           Al  tau(   2) = (   0.5003009   0.4992819   0.0002658  )
         3           Al  tau(   3) = (   0.4996490   0.0001153   0.5011170  )
         4           Al  tau(   4) = (  -0.0000756   0.5008267   0.5006943  )

     number of k points=    32  Marzari-Vanderbilt smearing, width (Ry)=  0.0200
                       cart. coord. in units 2pi/alat
        k(    1) = (   0.1250000   0.1250000   0.1250000), wk =   0.0625000
        k(    2) = (   0.1250000   0.1250000   0.3750000), wk =   0.0625000
        k(    3) = (   0.1250000   0.3750000   0.3750000), wk =   0.0625000
        k(    4) = (   0.3750000   0.3750000   0.3750000), wk =   0.0625000
        k(    5) = (  -0.1250000  -0.1250000   0.1250000), wk =   0.0625000
        k(    6) = (  -0.1250000   0.1250000  -0.1250000), wk =   0.0625000
        k(    7) = (   0.1250000  -0.1250000  -0.1250000), wk =   0.0625000
        k(    8) = (  -0.1250000  -0.1250000   0.3750000), wk =   0.0625000
        k(    9) = (  -0.1250000   0.1250000  -0.3750000), wk =   0.0625000
        k(   10) = (   0.1250000  -0.1250000  -0.3750000), wk =   0.0625000
        k(   11) = (   0.3750000  -0.1250000   0.1250000), wk =   0.0625000
        k(   12) = (  -0.3750000  -0.1250000  -0.1250000), wk =   0.0625000
        k(   13) = (   0.3750000   0.1250000  -0.1250000), wk =   0.0625000
        k(   14) = (  -0.3750000   0.1250000   0.1250000), wk =   0.0625000
        k(   15) = (  -0.1250000   0.3750000   0.1250000), wk =   0.0625000
        k(   16) = (  -0.1250000  -0.3750000  -0.1250000), wk =   0.0625000
        k(   17) = (   0.1250000   0.3750000  -0.1250000), wk =   0.0625000
        k(   18) = (   0.1250000  -0.3750000   0.1250000), wk =   0.0625000
        k(   19) = (  -0.1250000  -0.3750000   0.3750000), wk =   0.0625000
        k(   20) = (  -0.1250000   0.3750000  -0.3750000), wk =   0.0625000
        k(   21) = (   0.1250000  -0.3750000  -0.3750000), wk =   0.0625000
        k(   22) = (   0.3750000   0.1250000  -0.3750000), wk =   0.0625000
        k(   23) = (  -0.3750000  -0.1250000  -0.3750000), wk =   0.0625000
        k(   24) = (   0.3750000  -0.1250000   0.3750000), wk =   0.0625000
        k(   25) = (  -0.3750000   0.1250000   0.3750000), wk =   0.0625000
        k(   26) = (   0.3750000  -0.3750000   0.1250000), wk =   0.0625000
        k(   27) = (  -0.3750000  -0.3750000  -0.1250000), wk =   0.0625000
        k(   28) = (   0.3750000   0.3750000  -0.1250000), wk =   0.0625000
        k(   29) = (  -0.3750000   0.3750000   0.1250000), wk =   0.0625000
        k(   30) = (  -0.3750000  -0.3750000   0.3750000), wk =   0.0625000
        k(   31) = (  -0.3750000   0.3750000  -0.3750000), wk =   0.0625000
        k(   32) = (   0.3750000  -0.3750000  -0.3750000), wk =   0.0625000

     Dense  grid:     3119 G-vectors     FFT dimensions: (  20,  20,  20)

     Estimated max dynamical RAM per process >       0.65 MB

     Estimated total dynamical RAM >      12.94 MB

     Initial potential from superposition of free atoms

     starting charge   11.99084, renormalised to   12.00000
     Starting wfcs are   16 randomized atomic wfcs
     Checking if some PAW data can be deallocated... 

     total cpu time spent up to now is        0.7 secs

     Self-consistent Calculation

     iteration #  1     ecut=    74.00 Ry     beta= 0.10
     Davidson diagonalization with overlap
     ethr =  1.00E-02,  avg # of iterations =  4.9

     total cpu time spent up to now is        1.0 secs

     total energy              =    -141.65276915 Ry
     Harris-Foulkes estimate   =    -141.80704237 Ry
     estimated scf accuracy    <       0.18107969 Ry

     iteration #  2     ecut=    74.00 Ry     beta= 0.10
     Davidson diagonalization with overlap
     ethr =  1.51E-03,  avg # of iterations =  1.0

     total cpu time spent up to now is        1.1 secs

     total energy              =    -141.16264597 Ry
     Harris-Foulkes estimate   =    -141.65529109 Ry
     estimated scf accuracy    <       0.15202758 Ry

     iteration #  3     ecut=    74.00 Ry     beta= 0.10
     Davidson diagonalization with overlap
     ethr =  1.27E-03,  avg # of iterations =  2.0

     total cpu time spent up to now is        1.2 secs

     total energy              =    -141.24368006 Ry
     Harris-Foulkes estimate   =    -141.25599914 Ry
     estimated scf accuracy    <       0.01566334 Ry

     iteration #  4     ecut=    74.00 Ry     beta= 0.10
     Davidson diagonalization with overlap
     ethr =  1.31E-04,  avg # of iterations =  1.0

     total cpu time spent up to now is        1.3 secs

     total energy              =    -141.24148372 Ry
     Harris-Foulkes estimate   =    -141.24411557 Ry
     estimated scf accuracy    <       0.01247389 Ry

     iteration #  5     ecut=    74.00 Ry     beta= 0.10
     Davidson diagonalization with overlap
     ethr =  1.04E-04,  avg # of iterations =  1.0

     total cpu time spent up to now is        1.4 secs

     total energy              =    -141.24342101 Ry
     Harris-Foulkes estimate   =    -141.24255428 Ry
     estimated scf accuracy    <       0.00076441 Ry

     iteration #  6     ecut=    74.00 Ry     beta= 0.10
     Davidson diagonalization with overlap
     ethr =  6.37E-06,  avg # of iterations =  2.8

     total cpu time spent up to now is        1.5 secs

     total energy              =    -141.24368225 Ry
     Harris-Foulkes estimate   =    -141.24368599 Ry
     estimated scf accuracy    <       0.00010249 Ry

     iteration #  7     ecut=    74.00 Ry     beta= 0.10
     Davidson diagonalization with overlap
     ethr =  8.54E-07,  avg # of iterations =  1.1

     total cpu time spent up to now is        1.6 secs

     total energy              =    -141.24271966 Ry
     Harris-Foulkes estimate   =    -141.24368361 Ry
     estimated scf accuracy    <       0.00008482 Ry

     iteration #  8     ecut=    74.00 Ry     beta= 0.10
     Davidson diagonalization with overlap
     ethr =  7.07E-07,  avg # of iterations =  2.7

     total cpu time spent up to now is        1.7 secs

     total energy              =    -141.24285520 Ry
     Harris-Foulkes estimate   =    -141.24279379 Ry
     estimated scf accuracy    <       0.00001400 Ry

     iteration #  9     ecut=    74.00 Ry     beta= 0.10
     Davidson diagonalization with overlap
     ethr =  1.17E-07,  avg # of iterations =  2.0

     total cpu time spent up to now is        1.8 secs

     total energy              =    -141.24275263 Ry
     Harris-Foulkes estimate   =    -141.24285767 Ry
     estimated scf accuracy    <       0.00000791 Ry

     iteration # 10     ecut=    74.00 Ry     beta= 0.10
     Davidson diagonalization with overlap
     ethr =  6.59E-08,  avg # of iterations =  3.0

     total cpu time spent up to now is        2.0 secs

     End of self-consistent calculation

          k = 0.1250 0.1250 0.1250 (   712 PWs)   bands (ev):

    30.9148  41.4369  41.4560  41.4747  52.4295  52.4497  52.4698  54.9326
    54.9425  54.9524

          k = 0.1250 0.1250 0.3750 (   712 PWs)   bands (ev):

    34.4077  39.0139  43.9424  43.9612  51.8123  51.8296  54.8784  54.8871
    55.6927  61.5170

          k = 0.1250 0.3750 0.3750 (   711 PWs)   bands (ev):

    37.4230  41.6577  41.6946  44.5497  50.4945  52.9071  52.9562  57.0471
    57.5687  60.7332

          k = 0.3750 0.3750 0.3750 (   693 PWs)   bands (ev):

    39.8885  43.9772  44.0152  44.0529  47.7756  47.8171  47.8586  51.6510
    66.9741  66.9778

          k =-0.1250-0.1250 0.1250 (   712 PWs)   bands (ev):

    30.9148  41.4409  41.4560  41.4707  52.4337  52.4496  52.4656  54.9347
    54.9425  54.9504

          k =-0.1250 0.1250-0.1250 (   712 PWs)   bands (ev):

    30.9148  41.4447  41.4559  41.4668  52.4378  52.4497  52.4614  54.9367
    54.9425  54.9483

          k = 0.1250-0.1250-0.1250 (   712 PWs)   bands (ev):

    30.9148  41.4427  41.4560  41.4689  52.4356  52.4497  52.4636  54.9356
    54.9425  54.9494

          k =-0.1250-0.1250 0.3750 (   712 PWs)   bands (ev):

    34.4077  39.0140  43.9424  43.9612  51.8123  51.8296  54.8785  54.8871
    55.6924  61.5171

          k =-0.1250 0.1250-0.3750 (   712 PWs)   bands (ev):

    34.4077  39.0140  43.9475  43.9561  51.8170  51.8249  54.8808  54.8848
    55.6925  61.5170

          k = 0.1250-0.1250-0.3750 (   712 PWs)   bands (ev):

    34.4077  39.0139  43.9475  43.9561  51.8169  51.8248  54.8808  54.8848
    55.6927  61.5166

          k = 0.3750-0.1250 0.1250 (   712 PWs)   bands (ev):

    34.4077  39.0139  43.9475  43.9562  51.8168  51.8248  54.8809  54.8850
    55.6926  61.5171

          k =-0.3750-0.1250-0.1250 (   712 PWs)   bands (ev):

    34.4077  39.0138  43.9438  43.9599  51.8137  51.8284  54.8787  54.8861
    55.6933  61.5172

          k = 0.3750 0.1250-0.1250 (   712 PWs)   bands (ev):

    34.4077  39.0138  43.9475  43.9562  51.8167  51.8247  54.8810  54.8850
    55.6927  61.5171

          k =-0.3750 0.1250 0.1250 (   712 PWs)   bands (ev):

    34.4077  39.0139  43.9438  43.9598  51.8137  51.8284  54.8788  54.8862
    55.6929  61.5171

          k =-0.1250 0.3750 0.1250 (   712 PWs)   bands (ev):

    34.4077  39.0138  43.9508  43.9532  51.8198  51.8221  54.8821  54.8832
    55.6926  61.5171

          k =-0.1250-0.3750-0.1250 (   712 PWs)   bands (ev):

    34.4077  39.0137  43.9473  43.9567  51.8165  51.8252  54.8806  54.8849
    55.6927  61.5171

          k = 0.1250 0.3750-0.1250 (   712 PWs)   bands (ev):

    34.4077  39.0138  43.9508  43.9532  51.8198  51.8220  54.8819  54.8832
    55.6930  61.5171

          k = 0.1250-0.3750 0.1250 (   712 PWs)   bands (ev):

    34.4077  39.0138  43.9473  43.9567  51.8166  51.8252  54.8806  54.8849
    55.6926  61.5171

          k =-0.1250-0.3750 0.3750 (   711 PWs)   bands (ev):

    37.4229  41.6661  41.6863  44.5495  50.4947  52.9182  52.9449  57.0464
    57.5696  60.7371

          k =-0.1250 0.3750-0.3750 (   711 PWs)   bands (ev):

    37.4229  41.6662  41.6863  44.5495  50.4946  52.9181  52.9449  57.0460
    57.5701  60.7368

          k = 0.1250-0.3750-0.3750 (   711 PWs)   bands (ev):

    37.4230  41.6577  41.6947  44.5497  50.4945  52.9071  52.9562  57.0467
    57.5690  60.7344

          k = 0.3750 0.1250-0.3750 (   711 PWs)   bands (ev):

    37.4230  41.6734  41.6789  44.5495  50.4945  52.9280  52.9354  57.0471
    57.5689  60.7378

          k =-0.3750-0.1250-0.3750 (   711 PWs)   bands (ev):

    37.4230  41.6653  41.6870  44.5494  50.4947  52.9173  52.9461  57.0473
    57.5685  60.7342

          k = 0.3750-0.1250 0.3750 (   711 PWs)   bands (ev):

    37.4229  41.6653  41.6870  44.5495  50.4946  52.9172  52.9460  57.0475
    57.5686  60.7360

          k =-0.3750 0.1250 0.3750 (   711 PWs)   bands (ev):

    37.4229  41.6734  41.6789  44.5495  50.4946  52.9281  52.9355  57.0467
    57.5689  60.7378

          k = 0.3750-0.3750 0.1250 (   711 PWs)   bands (ev):

    37.4230  41.6663  41.6861  44.5496  50.4943  52.9183  52.9448  57.0473
    57.5687  60.7361

          k =-0.3750-0.3750-0.1250 (   711 PWs)   bands (ev):

    37.4230  41.6545  41.6978  44.5495  50.4947  52.9027  52.9605  57.0452
    57.5707  60.7397

          k = 0.3750 0.3750-0.1250 (   711 PWs)   bands (ev):

    37.4230  41.6545  41.6979  44.5495  50.4945  52.9026  52.9604  57.0474
    57.5686  60.7316

          k =-0.3750 0.3750 0.1250 (   711 PWs)   bands (ev):

    37.4230  41.6662  41.6861  44.5496  50.4946  52.9184  52.9449  57.0427
    57.5732  60.7348

          k =-0.3750-0.3750 0.3750 (   693 PWs)   bands (ev):

    39.8885  43.9851  44.0152  44.0449  47.7843  47.8170  47.8499  51.6511
    66.9731  66.9781

          k =-0.3750 0.3750-0.3750 (   693 PWs)   bands (ev):

    39.8884  43.9929  44.0151  44.0371  47.7928  47.8171  47.8413  51.6512
    66.9743  66.9772

          k = 0.3750-0.3750-0.3750 (   693 PWs)   bands (ev):

    39.8884  43.9887  44.0151  44.0413  47.7884  47.8171  47.8460  51.6510
    66.9751  66.9769

     the Fermi energy is    52.6614 ev

!    total energy              =    -141.24276262 Ry
     Harris-Foulkes estimate   =    -141.24276285 Ry
     estimated scf accuracy    <       0.00000071 Ry

     total all-electron energy =     -1925.813890 Ry

     The total energy is the sum of the following terms:

     one-electron contribution =      58.67248710 Ry
     hartree contribution      =       0.21194331 Ry
     xc contribution           =     -17.28508683 Ry
     ewald contribution        =     -40.85514768 Ry
     one-center paw contrib.   =    -141.98633370 Ry
     smearing contrib. (-TS)   =      -0.00062483 Ry

     convergence has been achieved in  10 iterations

     Forces acting on atoms (cartesian axes, Ry/au):

     atom    1 type  1   force =     0.00202803   -0.00040493    0.01638404
     atom    2 type  1   force =    -0.00327212    0.00370543    0.01636056
     atom    3 type  1   force =    -0.00057162   -0.00065629   -0.01727359
     atom    4 type  1   force =     0.00181571   -0.00264421   -0.01547100

     Total force =     0.033371     Total SCF correction =     0.000018


     Computing stress (Cartesian axis) and pressure

          total   stress  (Ry/bohr**3)                   (kbar)     P=59672.75
   0.40565246   0.00000110   0.00000077      59673.53      0.16      0.11
   0.00000110   0.40564150  -0.00000087          0.16  59671.91     -0.13
   0.00000077  -0.00000087   0.40564763          0.11     -0.13  59672.82


     Writing output data file fe_scf_fcc_2.save/
 
     init_run     :      0.14s CPU      0.15s WALL (       1 calls)
     electrons    :      1.12s CPU      1.25s WALL (       1 calls)
     forces       :      0.01s CPU      0.01s WALL (       1 calls)
     stress       :      0.01s CPU      0.01s WALL (       1 calls)

     Called by init_run:
     wfcinit      :      0.05s CPU      0.06s WALL (       1 calls)
     potinit      :      0.01s CPU      0.02s WALL (       1 calls)
     hinit0       :      0.07s CPU      0.07s WALL (       1 calls)

     Called by electrons:
     c_bands      :      0.85s CPU      0.95s WALL (      10 calls)
     sum_band     :      0.12s CPU      0.14s WALL (      10 calls)
     v_of_rho     :      0.00s CPU      0.01s WALL (      11 calls)
     newd         :      0.00s CPU      0.00s WALL (      11 calls)
     PAW_pot      :      0.12s CPU      0.14s WALL (      11 calls)
     mix_rho      :      0.00s CPU      0.01s WALL (      10 calls)

     Called by c_bands:
     init_us_2    :      0.01s CPU      0.01s WALL (     736 calls)
     cegterg      :      0.82s CPU      0.91s WALL (     320 calls)

     Called by sum_band:
     sum_band:bec :      0.00s CPU      0.00s WALL (     320 calls)
     addusdens    :      0.00s CPU      0.00s WALL (      10 calls)

     Called by *egterg:
     h_psi        :      0.57s CPU      0.64s WALL (    1038 calls)
     s_psi        :      0.01s CPU      0.01s WALL (    1038 calls)
     g_psi        :      0.00s CPU      0.00s WALL (     686 calls)
     cdiaghg      :      0.17s CPU      0.19s WALL (    1006 calls)

     Called by h_psi:
     h_psi:pot    :      0.57s CPU      0.63s WALL (    1038 calls)
     h_psi:calbec :      0.05s CPU      0.06s WALL (    1038 calls)
     vloc_psi     :      0.50s CPU      0.56s WALL (    1038 calls)
     add_vuspsi   :      0.01s CPU      0.01s WALL (    1038 calls)

     General routines
     calbec       :      0.08s CPU      0.09s WALL (    1518 calls)
     fft          :      0.07s CPU      0.07s WALL (     147 calls)
     ffts         :      0.00s CPU      0.00s WALL (      10 calls)
     fftw         :      0.56s CPU      0.63s WALL (   20680 calls)
 
     Parallel routines
     fft_scatt_xy :      0.04s CPU      0.04s WALL (   20837 calls)
     fft_scatt_yz :      0.49s CPU      0.55s WALL (   20837 calls)
 
     PWSCF        :     1.86s CPU         2.22s WALL

 
   This run was terminated on:  19: 2:24  22Oct2019            

=------------------------------------------------------------------------------=
   JOB DONE.
=------------------------------------------------------------------------------=
