
     Program PWSCF v.6.3 starts on 20Oct2019 at  2:44:40 

     This program is part of the open-source Quantum ESPRESSO suite
     for quantum simulation of materials; please cite
         "P. Giannozzi et al., J. Phys.:Condens. Matter 21 395502 (2009);
         "P. Giannozzi et al., J. Phys.:Condens. Matter 29 465901 (2017);
          URL http://www.quantum-espresso.org", 
     in publications or presentations arising from this work. More details at
     http://www.quantum-espresso.org/quote

     Parallel version (MPI), running on     1 processors

     MPI processes distributed on     1 nodes
     Reading input from /cloud/Code/python/py_pwscf_converge/src/example/wd/runpwscf/file_10045.in
Warning: card &IONS ignored
Warning: card ION_DYNAMICS = 'BFGS', ignored
Warning: card / ignored
Warning: card &CELL ignored
Warning: card CELL_DYNAMICS = 'BFGS', ignored
Warning: card CELL_FACTOR = 2.0, ignored
Warning: card PRESS = 0.0, ignored
Warning: card / ignored

     Current dimensions of program PWSCF are:
     Max number of different atomic species (ntypx) = 10
     Max number of k-points (npk) =  40000
     Max angular momentum in pseudopotentials (lmaxx) =  3
               file Al.pbe-nl-kjpaw_psl.1.0.0.UPF: wavefunction(s)  3S 3P renormalized

     Subspace diagonalization in iterative solution of the eigenvalue problem:
     a serial algorithm will be used


     G-vector sticks info
     --------------------
     sticks:   dense  smooth     PW     G-vecs:    dense   smooth      PW
     Sum         177     177    137                 1839     1839    1213



     bravais-lattice index     =            0
     lattice parameter (alat)  =       4.0400  a.u.
     unit-cell volume          =      65.9393 (a.u.)^3
     number of atoms/cell      =            4
     number of atomic types    =            1
     number of electrons       =        12.00
     number of Kohn-Sham states=           10
     kinetic-energy cutoff     =      85.0000  Ry
     charge density cutoff     =     140.0000  Ry
     convergence threshold     =      1.0E-06
     mixing beta               =       0.1000
     number of iterations used =           10  TF        mixing
     Exchange-correlation      = SLA PW PBX PBC ( 1  4  3  4 0 0)

     celldm(1)=   4.040000  celldm(2)=   0.000000  celldm(3)=   0.000000
     celldm(4)=   0.000000  celldm(5)=   0.000000  celldm(6)=   0.000000

     crystal axes: (cart. coord. in units of alat)
               a(1) = (   1.000000   0.000000   0.000000 )  
               a(2) = (   0.000000   1.000000   0.000000 )  
               a(3) = (   0.000000   0.000000   1.000000 )  

     reciprocal axes: (cart. coord. in units 2 pi/alat)
               b(1) = (  1.000000  0.000000  0.000000 )  
               b(2) = (  0.000000  1.000000  0.000000 )  
               b(3) = (  0.000000  0.000000  1.000000 )  


     PseudoPot. # 1 for Al read from file:
     /opt/pp/Al.pbe-nl-kjpaw_psl.1.0.0.UPF
     MD5 check sum: 1b67f78b73fe58c7924490f171ce8a1e
     Pseudo is Projector augmented-wave + core cor, Zval =  3.0
     Generated using "atomic" code by A. Dal Corso v.6.3
     Shape of augmentation charge: PSQ
     Using radial grid of 1135 points,  4 beta functions with: 
                l(1) =   0
                l(2) =   0
                l(3) =   1
                l(4) =   1
     Q(r) pseudized with 0 coefficients 


     atomic species   valence    mass     pseudopotential
        Al             3.00    26.98200     Al( 1.00)

     No symmetry found



   Cartesian axes

     site n.     atom                  positions (alat units)
         1           Al  tau(   1) = (  -0.0001235   0.0000359   0.0002572  )
         2           Al  tau(   2) = (   0.5003009   0.4992819   0.0002658  )
         3           Al  tau(   3) = (   0.4996490   0.0001153   0.5011170  )
         4           Al  tau(   4) = (  -0.0000756   0.5008267   0.5006943  )

     number of k points=    32  Marzari-Vanderbilt smearing, width (Ry)=  0.0200
                       cart. coord. in units 2pi/alat
        k(    1) = (   0.1250000   0.1250000   0.1250000), wk =   0.0625000
        k(    2) = (   0.1250000   0.1250000   0.3750000), wk =   0.0625000
        k(    3) = (   0.1250000   0.3750000   0.3750000), wk =   0.0625000
        k(    4) = (   0.3750000   0.3750000   0.3750000), wk =   0.0625000
        k(    5) = (  -0.1250000  -0.1250000   0.1250000), wk =   0.0625000
        k(    6) = (  -0.1250000   0.1250000  -0.1250000), wk =   0.0625000
        k(    7) = (   0.1250000  -0.1250000  -0.1250000), wk =   0.0625000
        k(    8) = (  -0.1250000  -0.1250000   0.3750000), wk =   0.0625000
        k(    9) = (  -0.1250000   0.1250000  -0.3750000), wk =   0.0625000
        k(   10) = (   0.1250000  -0.1250000  -0.3750000), wk =   0.0625000
        k(   11) = (   0.3750000  -0.1250000   0.1250000), wk =   0.0625000
        k(   12) = (  -0.3750000  -0.1250000  -0.1250000), wk =   0.0625000
        k(   13) = (   0.3750000   0.1250000  -0.1250000), wk =   0.0625000
        k(   14) = (  -0.3750000   0.1250000   0.1250000), wk =   0.0625000
        k(   15) = (  -0.1250000   0.3750000   0.1250000), wk =   0.0625000
        k(   16) = (  -0.1250000  -0.3750000  -0.1250000), wk =   0.0625000
        k(   17) = (   0.1250000   0.3750000  -0.1250000), wk =   0.0625000
        k(   18) = (   0.1250000  -0.3750000   0.1250000), wk =   0.0625000
        k(   19) = (  -0.1250000  -0.3750000   0.3750000), wk =   0.0625000
        k(   20) = (  -0.1250000   0.3750000  -0.3750000), wk =   0.0625000
        k(   21) = (   0.1250000  -0.3750000  -0.3750000), wk =   0.0625000
        k(   22) = (   0.3750000   0.1250000  -0.3750000), wk =   0.0625000
        k(   23) = (  -0.3750000  -0.1250000  -0.3750000), wk =   0.0625000
        k(   24) = (   0.3750000  -0.1250000   0.3750000), wk =   0.0625000
        k(   25) = (  -0.3750000   0.1250000   0.3750000), wk =   0.0625000
        k(   26) = (   0.3750000  -0.3750000   0.1250000), wk =   0.0625000
        k(   27) = (  -0.3750000  -0.3750000  -0.1250000), wk =   0.0625000
        k(   28) = (   0.3750000   0.3750000  -0.1250000), wk =   0.0625000
        k(   29) = (  -0.3750000   0.3750000   0.1250000), wk =   0.0625000
        k(   30) = (  -0.3750000  -0.3750000   0.3750000), wk =   0.0625000
        k(   31) = (  -0.3750000   0.3750000  -0.3750000), wk =   0.0625000
        k(   32) = (   0.3750000  -0.3750000  -0.3750000), wk =   0.0625000

     Dense  grid:     1839 G-vectors     FFT dimensions: (  15,  15,  15)

     Estimated max dynamical RAM per process >       7.78 MB

     Initial potential from superposition of free atoms

     starting charge   11.99084, renormalised to   12.00000
     Starting wfcs are   16 randomized atomic wfcs
     Checking if some PAW data can be deallocated... 

     total cpu time spent up to now is        1.2 secs

     Self-consistent Calculation

     iteration #  1     ecut=    85.00 Ry     beta= 0.10
     Davidson diagonalization with overlap
     ethr =  1.00E-02,  avg # of iterations =  4.9

     total cpu time spent up to now is        2.0 secs

     total energy              =    -141.65270725 Ry
     Harris-Foulkes estimate   =    -141.80699343 Ry
     estimated scf accuracy    <       0.18123400 Ry

     iteration #  2     ecut=    85.00 Ry     beta= 0.10
     Davidson diagonalization with overlap
     ethr =  1.51E-03,  avg # of iterations =  1.0

     total cpu time spent up to now is        2.4 secs

     total energy              =    -141.16234683 Ry
     Harris-Foulkes estimate   =    -141.65538532 Ry
     estimated scf accuracy    <       0.15204473 Ry

     iteration #  3     ecut=    85.00 Ry     beta= 0.10
     Davidson diagonalization with overlap
     ethr =  1.27E-03,  avg # of iterations =  2.0

     total cpu time spent up to now is        3.0 secs

     total energy              =    -141.24324101 Ry
     Harris-Foulkes estimate   =    -141.25475638 Ry
     estimated scf accuracy    <       0.01552008 Ry

     iteration #  4     ecut=    85.00 Ry     beta= 0.10
     Davidson diagonalization with overlap
     ethr =  1.29E-04,  avg # of iterations =  1.0

     total cpu time spent up to now is        3.5 secs

     total energy              =    -141.24156848 Ry
     Harris-Foulkes estimate   =    -141.24366845 Ry
     estimated scf accuracy    <       0.01239529 Ry

     iteration #  5     ecut=    85.00 Ry     beta= 0.10
     Davidson diagonalization with overlap
     ethr =  1.03E-04,  avg # of iterations =  1.0

     total cpu time spent up to now is        4.3 secs

     total energy              =    -141.24345184 Ry
     Harris-Foulkes estimate   =    -141.24263473 Ry
     estimated scf accuracy    <       0.00077100 Ry

     iteration #  6     ecut=    85.00 Ry     beta= 0.10
     Davidson diagonalization with overlap
     ethr =  6.43E-06,  avg # of iterations =  2.7

     total cpu time spent up to now is        6.0 secs

     total energy              =    -141.24372038 Ry
     Harris-Foulkes estimate   =    -141.24370896 Ry
     estimated scf accuracy    <       0.00011081 Ry

     iteration #  7     ecut=    85.00 Ry     beta= 0.10
     Davidson diagonalization with overlap
     ethr =  9.23E-07,  avg # of iterations =  1.2

     total cpu time spent up to now is        7.4 secs

     total energy              =    -141.24276821 Ry
     Harris-Foulkes estimate   =    -141.24372202 Ry
     estimated scf accuracy    <       0.00009123 Ry

     iteration #  8     ecut=    85.00 Ry     beta= 0.10
     Davidson diagonalization with overlap
     ethr =  7.60E-07,  avg # of iterations =  2.9

     total cpu time spent up to now is        9.1 secs

     total energy              =    -141.24293798 Ry
     Harris-Foulkes estimate   =    -141.24285354 Ry
     estimated scf accuracy    <       0.00001908 Ry

     iteration #  9     ecut=    85.00 Ry     beta= 0.10
     Davidson diagonalization with overlap
     ethr =  1.59E-07,  avg # of iterations =  2.0

     total cpu time spent up to now is       10.8 secs

     total energy              =    -141.24283150 Ry
     Harris-Foulkes estimate   =    -141.24294421 Ry
     estimated scf accuracy    <       0.00000784 Ry

     iteration # 10     ecut=    85.00 Ry     beta= 0.10
     Davidson diagonalization with overlap
     ethr =  6.54E-08,  avg # of iterations =  3.0

     total cpu time spent up to now is       12.6 secs

     End of self-consistent calculation

          k = 0.1250 0.1250 0.1250 (   865 PWs)   bands (ev):

    30.9114  41.4361  41.4541  41.4740  52.4289  52.4492  52.4693  54.9297
    54.9395  54.9496

          k = 0.1250 0.1250 0.3750 (   868 PWs)   bands (ev):

    34.4044  39.0113  43.9408  43.9597  51.8106  51.8278  54.8764  54.8851
    55.6921  61.5160

          k = 0.1250 0.3750 0.3750 (   873 PWs)   bands (ev):

    37.4198  41.6549  41.6918  44.5471  50.4930  52.9057  52.9548  57.0459
    57.5675  60.7331

          k = 0.3750 0.3750 0.3750 (   892 PWs)   bands (ev):

    39.8856  43.9747  44.0122  44.0504  47.7738  47.8152  47.8568  51.6494
    66.9723  66.9758

          k =-0.1250-0.1250 0.1250 (   865 PWs)   bands (ev):

    30.9114  41.4400  41.4544  41.4699  52.4331  52.4491  52.4650  54.9317
    54.9396  54.9475

          k =-0.1250 0.1250-0.1250 (   865 PWs)   bands (ev):

    30.9114  41.4434  41.4551  41.4656  52.4373  52.4491  52.4609  54.9338
    54.9396  54.9455

          k = 0.1250-0.1250-0.1250 (   865 PWs)   bands (ev):

    30.9114  41.4416  41.4546  41.4679  52.4351  52.4492  52.4631  54.9327
    54.9396  54.9465

          k =-0.1250-0.1250 0.3750 (   868 PWs)   bands (ev):

    34.4044  39.0113  43.9408  43.9596  51.8106  51.8278  54.8764  54.8851
    55.6919  61.5161

          k =-0.1250 0.1250-0.3750 (   868 PWs)   bands (ev):

    34.4044  39.0113  43.9459  43.9545  51.8152  51.8231  54.8788  54.8828
    55.6920  61.5161

          k = 0.1250-0.1250-0.3750 (   868 PWs)   bands (ev):

    34.4044  39.0113  43.9459  43.9546  51.8152  51.8231  54.8788  54.8828
    55.6922  61.5157

          k = 0.3750-0.1250 0.1250 (   868 PWs)   bands (ev):

    34.4045  39.0112  43.9459  43.9546  51.8150  51.8230  54.8789  54.8830
    55.6921  61.5161

          k =-0.3750-0.1250-0.1250 (   868 PWs)   bands (ev):

    34.4045  39.0111  43.9423  43.9583  51.8119  51.8266  54.8767  54.8841
    55.6928  61.5161

          k = 0.3750 0.1250-0.1250 (   868 PWs)   bands (ev):

    34.4045  39.0112  43.9459  43.9547  51.8150  51.8230  54.8789  54.8830
    55.6922  61.5161

          k =-0.3750 0.1250 0.1250 (   868 PWs)   bands (ev):

    34.4045  39.0112  43.9422  43.9583  51.8120  51.8267  54.8768  54.8842
    55.6924  61.5161

          k =-0.1250 0.3750 0.1250 (   868 PWs)   bands (ev):

    34.4045  39.0111  43.9492  43.9516  51.8181  51.8203  54.8801  54.8812
    55.6921  61.5160

          k =-0.1250-0.3750-0.1250 (   868 PWs)   bands (ev):

    34.4045  39.0111  43.9457  43.9552  51.8148  51.8234  54.8786  54.8829
    55.6922  61.5161

          k = 0.1250 0.3750-0.1250 (   868 PWs)   bands (ev):

    34.4045  39.0111  43.9492  43.9516  51.8181  51.8203  54.8799  54.8811
    55.6924  61.5160

          k = 0.1250-0.3750 0.1250 (   868 PWs)   bands (ev):

    34.4045  39.0111  43.9457  43.9551  51.8148  51.8235  54.8786  54.8829
    55.6920  61.5161

          k =-0.1250-0.3750 0.3750 (   873 PWs)   bands (ev):

    37.4198  41.6633  41.6835  44.5469  50.4932  52.9168  52.9436  57.0452
    57.5684  60.7348

          k =-0.1250 0.3750-0.3750 (   873 PWs)   bands (ev):

    37.4198  41.6633  41.6835  44.5470  50.4931  52.9167  52.9436  57.0449
    57.5689  60.7348

          k = 0.1250-0.3750-0.3750 (   873 PWs)   bands (ev):

    37.4198  41.6549  41.6918  44.5471  50.4930  52.9057  52.9548  57.0455
    57.5677  60.7348

          k = 0.3750 0.1250-0.3750 (   873 PWs)   bands (ev):

    37.4198  41.6706  41.6761  44.5470  50.4930  52.9266  52.9340  57.0459
    57.5677  60.7366

          k =-0.3750-0.1250-0.3750 (   873 PWs)   bands (ev):

    37.4198  41.6625  41.6842  44.5468  50.4932  52.9159  52.9448  57.0461
    57.5673  60.7333

          k = 0.3750-0.1250 0.3750 (   873 PWs)   bands (ev):

    37.4198  41.6625  41.6842  44.5469  50.4931  52.9158  52.9447  57.0463
    57.5674  60.7351

          k =-0.3750 0.1250 0.3750 (   873 PWs)   bands (ev):

    37.4198  41.6706  41.6761  44.5470  50.4931  52.9267  52.9341  57.0456
    57.5677  60.7364

          k = 0.3750-0.3750 0.1250 (   873 PWs)   bands (ev):

    37.4198  41.6634  41.6833  44.5470  50.4928  52.9169  52.9434  57.0462
    57.5675  60.7363

          k =-0.3750-0.3750-0.1250 (   873 PWs)   bands (ev):

    37.4199  41.6517  41.6951  44.5469  50.4932  52.9013  52.9591  57.0440
    57.5695  60.7302

          k = 0.3750 0.3750-0.1250 (   873 PWs)   bands (ev):

    37.4199  41.6517  41.6951  44.5470  50.4930  52.9013  52.9590  57.0462
    57.5674  60.7310

          k =-0.3750 0.3750 0.1250 (   873 PWs)   bands (ev):

    37.4198  41.6634  41.6833  44.5470  50.4931  52.9171  52.9435  57.0415
    57.5720  60.7357

          k =-0.3750-0.3750 0.3750 (   892 PWs)   bands (ev):

    39.8856  43.9825  44.0123  44.0423  47.7825  47.8152  47.8480  51.6495
    66.9728  66.9777

          k =-0.3750 0.3750-0.3750 (   892 PWs)   bands (ev):

    39.8855  43.9901  44.0125  44.0344  47.7910  47.8152  47.8395  51.6495
    66.9734  66.9754

          k = 0.3750-0.3750-0.3750 (   892 PWs)   bands (ev):

    39.8856  43.9861  44.0123  44.0386  47.7865  47.8153  47.8441  51.6494
    66.9736  66.9770

     the Fermi energy is    52.6606 ev

!    total energy              =    -141.24283925 Ry
     Harris-Foulkes estimate   =    -141.24284074 Ry
     estimated scf accuracy    <       0.00000090 Ry

     total all-electron energy =     -1925.813961 Ry

     The total energy is the sum of the following terms:

     one-electron contribution =      58.67258667 Ry
     hartree contribution      =       0.21193022 Ry
     xc contribution           =     -17.28501494 Ry
     ewald contribution        =     -40.85514766 Ry
     one-center paw contrib.   =    -141.98655516 Ry
     smearing contrib. (-TS)   =      -0.00063839 Ry

     convergence has been achieved in  10 iterations

     Forces acting on atoms (cartesian axes, Ry/au):

     atom    1 type  1   force =     0.00201663   -0.00039904    0.01639709
     atom    2 type  1   force =    -0.00325508    0.00365539    0.01636437
     atom    3 type  1   force =    -0.00058207   -0.00066343   -0.01725956
     atom    4 type  1   force =     0.00182052   -0.00259291   -0.01550190

     Total force =     0.033375     Total SCF correction =     0.000009


     Computing stress (Cartesian axis) and pressure

          total   stress  (Ry/bohr**3)                   (kbar)     P=59674.80
   0.40566662   0.00000105   0.00000102      59675.61      0.15      0.15
   0.00000105   0.40565514  -0.00000078          0.15  59673.92     -0.11
   0.00000102  -0.00000078   0.40566160          0.15     -0.11  59674.87


     Writing output data file fe_scf_fcc_2.save/

     init_run     :      0.67s CPU      0.69s WALL (       1 calls)
     electrons    :     11.04s CPU     11.43s WALL (       1 calls)
     forces       :      0.20s CPU      0.20s WALL (       1 calls)
     stress       :      0.62s CPU      0.62s WALL (       1 calls)

     Called by init_run:
     wfcinit      :      0.16s CPU      0.16s WALL (       1 calls)
     potinit      :      0.25s CPU      0.26s WALL (       1 calls)
     hinit0       :      0.26s CPU      0.26s WALL (       1 calls)

     Called by electrons:
     c_bands      :      5.02s CPU      5.16s WALL (      10 calls)
     sum_band     :      0.71s CPU      0.71s WALL (      10 calls)
     v_of_rho     :      0.05s CPU      0.05s WALL (      11 calls)
     newd         :      0.05s CPU      0.07s WALL (      11 calls)
     PAW_pot      :      5.46s CPU      5.68s WALL (      11 calls)
     mix_rho      :      0.00s CPU      0.01s WALL (      10 calls)

     Called by c_bands:
     init_us_2    :      0.44s CPU      0.45s WALL (     736 calls)
     cegterg      :      4.41s CPU      4.54s WALL (     320 calls)

     Called by sum_band:
     sum_band:bec :      0.02s CPU      0.01s WALL (     320 calls)
     addusdens    :      0.03s CPU      0.04s WALL (      10 calls)

     Called by *egterg:
     h_psi        :      2.46s CPU      2.54s WALL (    1044 calls)
     s_psi        :      0.42s CPU      0.43s WALL (    1044 calls)
     g_psi        :      0.07s CPU      0.06s WALL (     692 calls)
     cdiaghg      :      0.41s CPU      0.43s WALL (    1012 calls)

     Called by h_psi:
     h_psi:pot    :      2.42s CPU      2.49s WALL (    1044 calls)
     h_psi:calbec :      0.39s CPU      0.45s WALL (    1044 calls)
     vloc_psi     :      1.54s CPU      1.58s WALL (    1044 calls)
     add_vuspsi   :      0.50s CPU      0.46s WALL (    1044 calls)

     General routines
     calbec       :      0.63s CPU      0.71s WALL (    1524 calls)
     fft          :      0.01s CPU      0.01s WALL (     147 calls)
     ffts         :      0.00s CPU      0.00s WALL (      10 calls)
     fftw         :      1.56s CPU      1.55s WALL (   20794 calls)

     Parallel routines

     PWSCF        :    13.06s CPU        13.51s WALL


   This run was terminated on:   2:44:53  20Oct2019            

=------------------------------------------------------------------------------=
   JOB DONE.
=------------------------------------------------------------------------------=
