
     Program PWSCF v.6.3 starts on 22Oct2019 at 19: 6:11 

     This program is part of the open-source Quantum ESPRESSO suite
     for quantum simulation of materials; please cite
         "P. Giannozzi et al., J. Phys.:Condens. Matter 21 395502 (2009);
         "P. Giannozzi et al., J. Phys.:Condens. Matter 29 465901 (2017);
          URL http://www.quantum-espresso.org", 
     in publications or presentations arising from this work. More details at
     http://www.quantum-espresso.org/quote

     Parallel version (MPI & OpenMP), running on      20 processor cores
     Number of MPI processes:                20
     Threads/MPI process:                     1

     MPI processes distributed on     1 nodes
     R & G space division:  proc/nbgrp/npool/nimage =      20
     Reading input from /rds/homes/b/bxp912/jobs/20191022_test/wd/runpwscf/file_10130.in
Warning: card &IONS ignored
Warning: card ION_DYNAMICS = 'BFGS', ignored
Warning: card / ignored
Warning: card &CELL ignored
Warning: card CELL_DYNAMICS = 'BFGS', ignored
Warning: card CELL_FACTOR = 2.0, ignored
Warning: card PRESS = 0.0, ignored
Warning: card / ignored

     Current dimensions of program PWSCF are:
     Max number of different atomic species (ntypx) = 10
     Max number of k-points (npk) =  40000
     Max angular momentum in pseudopotentials (lmaxx) =  3
     Message from routine read_upf::
     Pseudo file /rds/homes/b/bxp912/pp/Al.pbe-nl-kjpaw_psl.1.0.0.UPF has been successfully fixed on the fly.
To avoid this message in the future you can permanently fix 
 your pseudo files following instructions given in: 
https://gitlab.com/QEF/q-e/blob/master/upftools/how_to_fix_upf.md
               file Al.pbe-nl-kjpaw_psl.1.0.0.UPF: wavefunction(s)  3S 3P renormalized

     Subspace diagonalization in iterative solution of the eigenvalue problem:
     a serial algorithm will be used

 
     Parallelization info
     --------------------
     sticks:   dense  smooth     PW     G-vecs:    dense   smooth      PW
     Min          11      11      6                  135      135      52
     Max          13      13      8                  138      138      53
     Sum         241     241    129                 2721     2721    1045
 


     bravais-lattice index     =            0
     lattice parameter (alat)  =       4.0400  a.u.
     unit-cell volume          =      65.9393 (a.u.)^3
     number of atoms/cell      =            4
     number of atomic types    =            1
     number of electrons       =        12.00
     number of Kohn-Sham states=           10
     kinetic-energy cutoff     =      80.0000  Ry
     charge density cutoff     =     180.0000  Ry
     convergence threshold     =      1.0E-06
     mixing beta               =       0.1000
     number of iterations used =           10  TF        mixing
     Exchange-correlation      = SLA PW PBX PBC ( 1  4  3  4 0 0)

     celldm(1)=   4.040000  celldm(2)=   0.000000  celldm(3)=   0.000000
     celldm(4)=   0.000000  celldm(5)=   0.000000  celldm(6)=   0.000000

     crystal axes: (cart. coord. in units of alat)
               a(1) = (   1.000000   0.000000   0.000000 )  
               a(2) = (   0.000000   1.000000   0.000000 )  
               a(3) = (   0.000000   0.000000   1.000000 )  

     reciprocal axes: (cart. coord. in units 2 pi/alat)
               b(1) = (  1.000000  0.000000  0.000000 )  
               b(2) = (  0.000000  1.000000  0.000000 )  
               b(3) = (  0.000000  0.000000  1.000000 )  


     PseudoPot. # 1 for Al read from file:
     /rds/homes/b/bxp912/pp/Al.pbe-nl-kjpaw_psl.1.0.0.UPF
     MD5 check sum: 339dbea23cf3ab9a065ad45c0f9085d7
     Pseudo is Projector augmented-wave + core cor, Zval =  3.0
     Generated using "atomic" code by A. Dal Corso v.5.1
     Shape of augmentation charge: PSQ
     Using radial grid of 1135 points,  4 beta functions with: 
                l(1) =   0
                l(2) =   0
                l(3) =   1
                l(4) =   1
     Q(r) pseudized with 0 coefficients 


     atomic species   valence    mass     pseudopotential
        Al             3.00    26.98200     Al( 1.00)

     No symmetry found



   Cartesian axes

     site n.     atom                  positions (alat units)
         1           Al  tau(   1) = (  -0.0001235   0.0000359   0.0002572  )
         2           Al  tau(   2) = (   0.5003009   0.4992819   0.0002658  )
         3           Al  tau(   3) = (   0.4996490   0.0001153   0.5011170  )
         4           Al  tau(   4) = (  -0.0000756   0.5008267   0.5006943  )

     number of k points=    32  Marzari-Vanderbilt smearing, width (Ry)=  0.0200
                       cart. coord. in units 2pi/alat
        k(    1) = (   0.1250000   0.1250000   0.1250000), wk =   0.0625000
        k(    2) = (   0.1250000   0.1250000   0.3750000), wk =   0.0625000
        k(    3) = (   0.1250000   0.3750000   0.3750000), wk =   0.0625000
        k(    4) = (   0.3750000   0.3750000   0.3750000), wk =   0.0625000
        k(    5) = (  -0.1250000  -0.1250000   0.1250000), wk =   0.0625000
        k(    6) = (  -0.1250000   0.1250000  -0.1250000), wk =   0.0625000
        k(    7) = (   0.1250000  -0.1250000  -0.1250000), wk =   0.0625000
        k(    8) = (  -0.1250000  -0.1250000   0.3750000), wk =   0.0625000
        k(    9) = (  -0.1250000   0.1250000  -0.3750000), wk =   0.0625000
        k(   10) = (   0.1250000  -0.1250000  -0.3750000), wk =   0.0625000
        k(   11) = (   0.3750000  -0.1250000   0.1250000), wk =   0.0625000
        k(   12) = (  -0.3750000  -0.1250000  -0.1250000), wk =   0.0625000
        k(   13) = (   0.3750000   0.1250000  -0.1250000), wk =   0.0625000
        k(   14) = (  -0.3750000   0.1250000   0.1250000), wk =   0.0625000
        k(   15) = (  -0.1250000   0.3750000   0.1250000), wk =   0.0625000
        k(   16) = (  -0.1250000  -0.3750000  -0.1250000), wk =   0.0625000
        k(   17) = (   0.1250000   0.3750000  -0.1250000), wk =   0.0625000
        k(   18) = (   0.1250000  -0.3750000   0.1250000), wk =   0.0625000
        k(   19) = (  -0.1250000  -0.3750000   0.3750000), wk =   0.0625000
        k(   20) = (  -0.1250000   0.3750000  -0.3750000), wk =   0.0625000
        k(   21) = (   0.1250000  -0.3750000  -0.3750000), wk =   0.0625000
        k(   22) = (   0.3750000   0.1250000  -0.3750000), wk =   0.0625000
        k(   23) = (  -0.3750000  -0.1250000  -0.3750000), wk =   0.0625000
        k(   24) = (   0.3750000  -0.1250000   0.3750000), wk =   0.0625000
        k(   25) = (  -0.3750000   0.1250000   0.3750000), wk =   0.0625000
        k(   26) = (   0.3750000  -0.3750000   0.1250000), wk =   0.0625000
        k(   27) = (  -0.3750000  -0.3750000  -0.1250000), wk =   0.0625000
        k(   28) = (   0.3750000   0.3750000  -0.1250000), wk =   0.0625000
        k(   29) = (  -0.3750000   0.3750000   0.1250000), wk =   0.0625000
        k(   30) = (  -0.3750000  -0.3750000   0.3750000), wk =   0.0625000
        k(   31) = (  -0.3750000   0.3750000  -0.3750000), wk =   0.0625000
        k(   32) = (   0.3750000  -0.3750000  -0.3750000), wk =   0.0625000

     Dense  grid:     2721 G-vectors     FFT dimensions: (  18,  18,  18)

     Estimated max dynamical RAM per process >       0.65 MB

     Estimated total dynamical RAM >      13.01 MB

     Initial potential from superposition of free atoms

     starting charge   11.99084, renormalised to   12.00000
     Starting wfcs are   16 randomized atomic wfcs
     Checking if some PAW data can be deallocated... 

     total cpu time spent up to now is        0.7 secs

     Self-consistent Calculation

     iteration #  1     ecut=    80.00 Ry     beta= 0.10
     Davidson diagonalization with overlap
     ethr =  1.00E-02,  avg # of iterations =  4.9

     total cpu time spent up to now is        0.9 secs

     total energy              =    -141.65275227 Ry
     Harris-Foulkes estimate   =    -141.80702311 Ry
     estimated scf accuracy    <       0.18109669 Ry

     iteration #  2     ecut=    80.00 Ry     beta= 0.10
     Davidson diagonalization with overlap
     ethr =  1.51E-03,  avg # of iterations =  1.0

     total cpu time spent up to now is        1.0 secs

     total energy              =    -141.16272406 Ry
     Harris-Foulkes estimate   =    -141.65532467 Ry
     estimated scf accuracy    <       0.15203168 Ry

     iteration #  3     ecut=    80.00 Ry     beta= 0.10
     Davidson diagonalization with overlap
     ethr =  1.27E-03,  avg # of iterations =  2.0

     total cpu time spent up to now is        1.2 secs

     total energy              =    -141.24412015 Ry
     Harris-Foulkes estimate   =    -141.25644230 Ry
     estimated scf accuracy    <       0.01571569 Ry

     iteration #  4     ecut=    80.00 Ry     beta= 0.10
     Davidson diagonalization with overlap
     ethr =  1.31E-04,  avg # of iterations =  1.0

     total cpu time spent up to now is        1.2 secs

     total energy              =    -141.24157688 Ry
     Harris-Foulkes estimate   =    -141.24454607 Ry
     estimated scf accuracy    <       0.01254557 Ry

     iteration #  5     ecut=    80.00 Ry     beta= 0.10
     Davidson diagonalization with overlap
     ethr =  1.05E-04,  avg # of iterations =  1.0

     total cpu time spent up to now is        1.3 secs

     total energy              =    -141.24356507 Ry
     Harris-Foulkes estimate   =    -141.24264877 Ry
     estimated scf accuracy    <       0.00080611 Ry

     iteration #  6     ecut=    80.00 Ry     beta= 0.10
     Davidson diagonalization with overlap
     ethr =  6.72E-06,  avg # of iterations =  2.8

     total cpu time spent up to now is        1.5 secs

     total energy              =    -141.24382328 Ry
     Harris-Foulkes estimate   =    -141.24384774 Ry
     estimated scf accuracy    <       0.00009634 Ry

     iteration #  7     ecut=    80.00 Ry     beta= 0.10
     Davidson diagonalization with overlap
     ethr =  8.03E-07,  avg # of iterations =  1.2

     total cpu time spent up to now is        1.6 secs

     total energy              =    -141.24284150 Ry
     Harris-Foulkes estimate   =    -141.24382486 Ry
     estimated scf accuracy    <       0.00007468 Ry

     iteration #  8     ecut=    80.00 Ry     beta= 0.10
     Davidson diagonalization with overlap
     ethr =  6.22E-07,  avg # of iterations =  2.9

     total cpu time spent up to now is        1.7 secs

     total energy              =    -141.24294558 Ry
     Harris-Foulkes estimate   =    -141.24291011 Ry
     estimated scf accuracy    <       0.00000754 Ry

     iteration #  9     ecut=    80.00 Ry     beta= 0.10
     Davidson diagonalization with overlap
     ethr =  6.28E-08,  avg # of iterations =  2.0

     total cpu time spent up to now is        1.8 secs

     total energy              =    -141.24284779 Ry
     Harris-Foulkes estimate   =    -141.24294649 Ry
     estimated scf accuracy    <       0.00000785 Ry

     iteration # 10     ecut=    80.00 Ry     beta= 0.10
     Davidson diagonalization with overlap
     ethr =  6.28E-08,  avg # of iterations =  3.0

     total cpu time spent up to now is        2.0 secs

     total energy              =    -141.24285786 Ry
     Harris-Foulkes estimate   =    -141.24285797 Ry
     estimated scf accuracy    <       0.00000104 Ry

     iteration # 11     ecut=    80.00 Ry     beta= 0.10
     Davidson diagonalization with overlap
     ethr =  8.69E-09,  avg # of iterations =  1.0

     total cpu time spent up to now is        2.1 secs

     total energy              =    -141.24285804 Ry
     Harris-Foulkes estimate   =    -141.24285787 Ry
     estimated scf accuracy    <       0.00000106 Ry

     iteration # 12     ecut=    80.00 Ry     beta= 0.10
     Davidson diagonalization with overlap
     ethr =  8.69E-09,  avg # of iterations =  1.0

     total cpu time spent up to now is        2.3 secs

     End of self-consistent calculation

          k = 0.1250 0.1250 0.1250 (   793 PWs)   bands (ev):

    30.9167  41.4383  41.4573  41.4761  52.4294  52.4497  52.4698  54.9335
    54.9434  54.9533

          k = 0.1250 0.1250 0.3750 (   798 PWs)   bands (ev):

    34.4093  39.0154  43.9438  43.9626  51.8127  51.8300  54.8790  54.8877
    55.6926  61.5180

          k = 0.1250 0.3750 0.3750 (   802 PWs)   bands (ev):

    37.4244  41.6590  41.6959  44.5509  50.4951  52.9075  52.9567  57.0473
    57.5693  60.7353

          k = 0.3750 0.3750 0.3750 (   795 PWs)   bands (ev):

    39.8897  43.9783  44.0163  44.0540  47.7763  47.8178  47.8593  51.6516
    66.9758  66.9777

          k =-0.1250-0.1250 0.1250 (   793 PWs)   bands (ev):

    30.9167  41.4422  41.4573  41.4721  52.4336  52.4496  52.4655  54.9356
    54.9434  54.9513

          k =-0.1250 0.1250-0.1250 (   793 PWs)   bands (ev):

    30.9167  41.4461  41.4573  41.4682  52.4377  52.4496  52.4614  54.9376
    54.9434  54.9492

          k = 0.1250-0.1250-0.1250 (   793 PWs)   bands (ev):

    30.9167  41.4441  41.4573  41.4703  52.4356  52.4497  52.4636  54.9365
    54.9434  54.9503

          k =-0.1250-0.1250 0.3750 (   798 PWs)   bands (ev):

    34.4093  39.0154  43.9437  43.9626  51.8128  51.8300  54.8791  54.8877
    55.6924  61.5180

          k =-0.1250 0.1250-0.3750 (   798 PWs)   bands (ev):

    34.4093  39.0154  43.9489  43.9575  51.8174  51.8253  54.8814  54.8854
    55.6925  61.5180

          k = 0.1250-0.1250-0.3750 (   798 PWs)   bands (ev):

    34.4093  39.0154  43.9489  43.9575  51.8174  51.8253  54.8814  54.8853
    55.6927  61.5175

          k = 0.3750-0.1250 0.1250 (   798 PWs)   bands (ev):

    34.4094  39.0153  43.9488  43.9576  51.8172  51.8252  54.8815  54.8856
    55.6926  61.5178

          k =-0.3750-0.1250-0.1250 (   798 PWs)   bands (ev):

    34.4094  39.0152  43.9452  43.9612  51.8141  51.8288  54.8793  54.8867
    55.6932  61.5180

          k = 0.3750 0.1250-0.1250 (   798 PWs)   bands (ev):

    34.4094  39.0152  43.9488  43.9576  51.8172  51.8252  54.8815  54.8856
    55.6927  61.5180

          k =-0.3750 0.1250 0.1250 (   798 PWs)   bands (ev):

    34.4094  39.0153  43.9452  43.9612  51.8142  51.8289  54.8794  54.8868
    55.6929  61.5180

          k =-0.1250 0.3750 0.1250 (   798 PWs)   bands (ev):

    34.4094  39.0152  43.9521  43.9546  51.8203  51.8225  54.8827  54.8838
    55.6926  61.5180

          k =-0.1250-0.3750-0.1250 (   798 PWs)   bands (ev):

    34.4094  39.0152  43.9487  43.9581  51.8170  51.8256  54.8812  54.8855
    55.6927  61.5180

          k = 0.1250 0.3750-0.1250 (   798 PWs)   bands (ev):

    34.4094  39.0152  43.9521  43.9546  51.8202  51.8225  54.8826  54.8838
    55.6929  61.5179

          k = 0.1250-0.3750 0.1250 (   798 PWs)   bands (ev):

    34.4094  39.0152  43.9486  43.9580  51.8170  51.8256  54.8812  54.8855
    55.6925  61.5180

          k =-0.1250-0.3750 0.3750 (   802 PWs)   bands (ev):

    37.4244  41.6674  41.6876  44.5508  50.4952  52.9186  52.9454  57.0467
    57.5702  60.7362

          k =-0.1250 0.3750-0.3750 (   802 PWs)   bands (ev):

    37.4244  41.6674  41.6876  44.5508  50.4952  52.9186  52.9454  57.0463
    57.5707  60.7378

          k = 0.1250-0.3750-0.3750 (   802 PWs)   bands (ev):

    37.4244  41.6590  41.6959  44.5510  50.4951  52.9075  52.9567  57.0469
    57.5696  60.7325

          k = 0.3750 0.1250-0.3750 (   802 PWs)   bands (ev):

    37.4244  41.6746  41.6802  44.5508  50.4951  52.9285  52.9359  57.0473
    57.5695  60.7379

          k =-0.3750-0.1250-0.3750 (   802 PWs)   bands (ev):

    37.4244  41.6666  41.6883  44.5507  50.4953  52.9178  52.9466  57.0475
    57.5691  60.7345

          k = 0.3750-0.1250 0.3750 (   802 PWs)   bands (ev):

    37.4244  41.6666  41.6883  44.5507  50.4951  52.9177  52.9465  57.0477
    57.5693  60.7374

          k =-0.3750 0.1250 0.3750 (   802 PWs)   bands (ev):

    37.4244  41.6746  41.6802  44.5508  50.4952  52.9285  52.9360  57.0470
    57.5695  60.7382

          k = 0.3750-0.3750 0.1250 (   802 PWs)   bands (ev):

    37.4244  41.6675  41.6874  44.5509  50.4949  52.9188  52.9453  57.0476
    57.5693  60.7393

          k =-0.3750-0.3750-0.1250 (   802 PWs)   bands (ev):

    37.4245  41.6558  41.6991  44.5507  50.4953  52.9032  52.9609  57.0455
    57.5713  60.7327

          k = 0.3750 0.3750-0.1250 (   802 PWs)   bands (ev):

    37.4245  41.6558  41.6992  44.5508  50.4951  52.9031  52.9609  57.0476
    57.5692  60.7315

          k =-0.3750 0.3750 0.1250 (   802 PWs)   bands (ev):

    37.4244  41.6675  41.6874  44.5508  50.4952  52.9189  52.9454  57.0429
    57.5738  60.7368

          k =-0.3750-0.3750 0.3750 (   795 PWs)   bands (ev):

    39.8897  43.9862  44.0163  44.0460  47.7850  47.8177  47.8506  51.6517
    66.9751  66.9767

          k =-0.3750 0.3750-0.3750 (   795 PWs)   bands (ev):

    39.8897  43.9940  44.0162  44.0383  47.7935  47.8178  47.8421  51.6518
    66.9746  66.9781

          k = 0.3750-0.3750-0.3750 (   795 PWs)   bands (ev):

    39.8897  43.9899  44.0162  44.0424  47.7891  47.8178  47.8467  51.6517
    66.9742  66.9786

     the Fermi energy is    52.6615 ev

!    total energy              =    -141.24285764 Ry
     Harris-Foulkes estimate   =    -141.24285809 Ry
     estimated scf accuracy    <       0.00000042 Ry

     total all-electron energy =     -1925.813985 Ry

     The total energy is the sum of the following terms:

     one-electron contribution =      58.67271377 Ry
     hartree contribution      =       0.21192869 Ry
     xc contribution           =     -17.28534434 Ry
     ewald contribution        =     -40.85514779 Ry
     one-center paw contrib.   =    -141.98639127 Ry
     smearing contrib. (-TS)   =      -0.00061671 Ry

     convergence has been achieved in  12 iterations

     Forces acting on atoms (cartesian axes, Ry/au):

     atom    1 type  1   force =     0.00200720   -0.00039383    0.01643507
     atom    2 type  1   force =    -0.00325076    0.00372769    0.01640460
     atom    3 type  1   force =    -0.00055521   -0.00068905   -0.01730512
     atom    4 type  1   force =     0.00179877   -0.00264481   -0.01553455

     Total force =     0.033462     Total SCF correction =     0.000005


     Computing stress (Cartesian axis) and pressure

          total   stress  (Ry/bohr**3)                   (kbar)     P=59672.93
   0.40565376   0.00000115   0.00000095      59673.72      0.17      0.14
   0.00000115   0.40564246  -0.00000110          0.17  59672.06     -0.16
   0.00000095  -0.00000110   0.40564889          0.14     -0.16  59673.00


     Writing output data file fe_scf_fcc_2.save/
 
     init_run     :      0.12s CPU      0.15s WALL (       1 calls)
     electrons    :      1.47s CPU      1.63s WALL (       1 calls)
     forces       :      0.01s CPU      0.01s WALL (       1 calls)
     stress       :      0.01s CPU      0.01s WALL (       1 calls)

     Called by init_run:
     wfcinit      :      0.05s CPU      0.06s WALL (       1 calls)
     potinit      :      0.01s CPU      0.02s WALL (       1 calls)
     hinit0       :      0.05s CPU      0.07s WALL (       1 calls)

     Called by electrons:
     c_bands      :      1.11s CPU      1.23s WALL (      12 calls)
     sum_band     :      0.18s CPU      0.21s WALL (      12 calls)
     v_of_rho     :      0.01s CPU      0.01s WALL (      13 calls)
     newd         :      0.00s CPU      0.00s WALL (      13 calls)
     PAW_pot      :      0.16s CPU      0.17s WALL (      13 calls)
     mix_rho      :      0.01s CPU      0.01s WALL (      12 calls)

     Called by c_bands:
     init_us_2    :      0.01s CPU      0.01s WALL (     864 calls)
     cegterg      :      1.07s CPU      1.18s WALL (     384 calls)

     Called by sum_band:
     sum_band:bec :      0.00s CPU      0.00s WALL (     384 calls)
     addusdens    :      0.00s CPU      0.00s WALL (      12 calls)

     Called by *egterg:
     h_psi        :      0.79s CPU      0.88s WALL (    1176 calls)
     s_psi        :      0.01s CPU      0.01s WALL (    1176 calls)
     g_psi        :      0.00s CPU      0.00s WALL (     760 calls)
     cdiaghg      :      0.19s CPU      0.21s WALL (    1144 calls)

     Called by h_psi:
     h_psi:pot    :      0.79s CPU      0.87s WALL (    1176 calls)
     h_psi:calbec :      0.08s CPU      0.08s WALL (    1176 calls)
     vloc_psi     :      0.70s CPU      0.77s WALL (    1176 calls)
     add_vuspsi   :      0.01s CPU      0.01s WALL (    1176 calls)

     General routines
     calbec       :      0.10s CPU      0.12s WALL (    1720 calls)
     fft          :      0.04s CPU      0.06s WALL (     169 calls)
     ffts         :      0.00s CPU      0.00s WALL (      12 calls)
     fftw         :      0.80s CPU      0.89s WALL (   23882 calls)
 
     Parallel routines
     fft_scatt_xy :      0.04s CPU      0.04s WALL (   24063 calls)
     fft_scatt_yz :      0.69s CPU      0.78s WALL (   24063 calls)
 
     PWSCF        :     2.16s CPU         2.66s WALL

 
   This run was terminated on:  19: 6:14  22Oct2019            

=------------------------------------------------------------------------------=
   JOB DONE.
=------------------------------------------------------------------------------=
