
     Program PWSCF v.6.3 starts on 20Oct2019 at  2:49:30 

     This program is part of the open-source Quantum ESPRESSO suite
     for quantum simulation of materials; please cite
         "P. Giannozzi et al., J. Phys.:Condens. Matter 21 395502 (2009);
         "P. Giannozzi et al., J. Phys.:Condens. Matter 29 465901 (2017);
          URL http://www.quantum-espresso.org", 
     in publications or presentations arising from this work. More details at
     http://www.quantum-espresso.org/quote

     Parallel version (MPI), running on     1 processors

     MPI processes distributed on     1 nodes
     Reading input from /cloud/Code/python/py_pwscf_converge/src/example/wd/runpwscf/file_10101.in
Warning: card &IONS ignored
Warning: card ION_DYNAMICS = 'BFGS', ignored
Warning: card / ignored
Warning: card &CELL ignored
Warning: card CELL_DYNAMICS = 'BFGS', ignored
Warning: card CELL_FACTOR = 2.0, ignored
Warning: card PRESS = 0.0, ignored
Warning: card / ignored

     Current dimensions of program PWSCF are:
     Max number of different atomic species (ntypx) = 10
     Max number of k-points (npk) =  40000
     Max angular momentum in pseudopotentials (lmaxx) =  3
               file Al.pbe-nl-kjpaw_psl.1.0.0.UPF: wavefunction(s)  3S 3P renormalized

     Subspace diagonalization in iterative solution of the eigenvalue problem:
     a serial algorithm will be used


     G-vector sticks info
     --------------------
     sticks:   dense  smooth     PW     G-vecs:    dense   smooth      PW
     Sum         293     241     69                 3695     2721     485



     bravais-lattice index     =            0
     lattice parameter (alat)  =       4.0400  a.u.
     unit-cell volume          =      65.9393 (a.u.)^3
     number of atoms/cell      =            4
     number of atomic types    =            1
     number of electrons       =        12.00
     number of Kohn-Sham states=           10
     kinetic-energy cutoff     =      45.0000  Ry
     charge density cutoff     =     220.0000  Ry
     convergence threshold     =      1.0E-06
     mixing beta               =       0.1000
     number of iterations used =           10  TF        mixing
     Exchange-correlation      = SLA PW PBX PBC ( 1  4  3  4 0 0)

     celldm(1)=   4.040000  celldm(2)=   0.000000  celldm(3)=   0.000000
     celldm(4)=   0.000000  celldm(5)=   0.000000  celldm(6)=   0.000000

     crystal axes: (cart. coord. in units of alat)
               a(1) = (   1.000000   0.000000   0.000000 )  
               a(2) = (   0.000000   1.000000   0.000000 )  
               a(3) = (   0.000000   0.000000   1.000000 )  

     reciprocal axes: (cart. coord. in units 2 pi/alat)
               b(1) = (  1.000000  0.000000  0.000000 )  
               b(2) = (  0.000000  1.000000  0.000000 )  
               b(3) = (  0.000000  0.000000  1.000000 )  


     PseudoPot. # 1 for Al read from file:
     /opt/pp/Al.pbe-nl-kjpaw_psl.1.0.0.UPF
     MD5 check sum: 1b67f78b73fe58c7924490f171ce8a1e
     Pseudo is Projector augmented-wave + core cor, Zval =  3.0
     Generated using "atomic" code by A. Dal Corso v.6.3
     Shape of augmentation charge: PSQ
     Using radial grid of 1135 points,  4 beta functions with: 
                l(1) =   0
                l(2) =   0
                l(3) =   1
                l(4) =   1
     Q(r) pseudized with 0 coefficients 


     atomic species   valence    mass     pseudopotential
        Al             3.00    26.98200     Al( 1.00)

     No symmetry found



   Cartesian axes

     site n.     atom                  positions (alat units)
         1           Al  tau(   1) = (  -0.0001235   0.0000359   0.0002572  )
         2           Al  tau(   2) = (   0.5003009   0.4992819   0.0002658  )
         3           Al  tau(   3) = (   0.4996490   0.0001153   0.5011170  )
         4           Al  tau(   4) = (  -0.0000756   0.5008267   0.5006943  )

     number of k points=    32  Marzari-Vanderbilt smearing, width (Ry)=  0.0200
                       cart. coord. in units 2pi/alat
        k(    1) = (   0.1250000   0.1250000   0.1250000), wk =   0.0625000
        k(    2) = (   0.1250000   0.1250000   0.3750000), wk =   0.0625000
        k(    3) = (   0.1250000   0.3750000   0.3750000), wk =   0.0625000
        k(    4) = (   0.3750000   0.3750000   0.3750000), wk =   0.0625000
        k(    5) = (  -0.1250000  -0.1250000   0.1250000), wk =   0.0625000
        k(    6) = (  -0.1250000   0.1250000  -0.1250000), wk =   0.0625000
        k(    7) = (   0.1250000  -0.1250000  -0.1250000), wk =   0.0625000
        k(    8) = (  -0.1250000  -0.1250000   0.3750000), wk =   0.0625000
        k(    9) = (  -0.1250000   0.1250000  -0.3750000), wk =   0.0625000
        k(   10) = (   0.1250000  -0.1250000  -0.3750000), wk =   0.0625000
        k(   11) = (   0.3750000  -0.1250000   0.1250000), wk =   0.0625000
        k(   12) = (  -0.3750000  -0.1250000  -0.1250000), wk =   0.0625000
        k(   13) = (   0.3750000   0.1250000  -0.1250000), wk =   0.0625000
        k(   14) = (  -0.3750000   0.1250000   0.1250000), wk =   0.0625000
        k(   15) = (  -0.1250000   0.3750000   0.1250000), wk =   0.0625000
        k(   16) = (  -0.1250000  -0.3750000  -0.1250000), wk =   0.0625000
        k(   17) = (   0.1250000   0.3750000  -0.1250000), wk =   0.0625000
        k(   18) = (   0.1250000  -0.3750000   0.1250000), wk =   0.0625000
        k(   19) = (  -0.1250000  -0.3750000   0.3750000), wk =   0.0625000
        k(   20) = (  -0.1250000   0.3750000  -0.3750000), wk =   0.0625000
        k(   21) = (   0.1250000  -0.3750000  -0.3750000), wk =   0.0625000
        k(   22) = (   0.3750000   0.1250000  -0.3750000), wk =   0.0625000
        k(   23) = (  -0.3750000  -0.1250000  -0.3750000), wk =   0.0625000
        k(   24) = (   0.3750000  -0.1250000   0.3750000), wk =   0.0625000
        k(   25) = (  -0.3750000   0.1250000   0.3750000), wk =   0.0625000
        k(   26) = (   0.3750000  -0.3750000   0.1250000), wk =   0.0625000
        k(   27) = (  -0.3750000  -0.3750000  -0.1250000), wk =   0.0625000
        k(   28) = (   0.3750000   0.3750000  -0.1250000), wk =   0.0625000
        k(   29) = (  -0.3750000   0.3750000   0.1250000), wk =   0.0625000
        k(   30) = (  -0.3750000  -0.3750000   0.3750000), wk =   0.0625000
        k(   31) = (  -0.3750000   0.3750000  -0.3750000), wk =   0.0625000
        k(   32) = (   0.3750000  -0.3750000  -0.3750000), wk =   0.0625000

     Dense  grid:     3695 G-vectors     FFT dimensions: (  20,  20,  20)

     Smooth grid:     2721 G-vectors     FFT dimensions: (  18,  18,  18)

     Estimated max dynamical RAM per process >       7.40 MB

     Initial potential from superposition of free atoms

     starting charge   11.99084, renormalised to   12.00000
     Starting wfcs are   16 randomized atomic wfcs
     Checking if some PAW data can be deallocated... 

     total cpu time spent up to now is        1.2 secs

     Self-consistent Calculation

     iteration #  1     ecut=    45.00 Ry     beta= 0.10
     Davidson diagonalization with overlap
     ethr =  1.00E-02,  avg # of iterations =  4.9

     total cpu time spent up to now is        2.1 secs

     total energy              =    -141.65033500 Ry
     Harris-Foulkes estimate   =    -141.80476655 Ry
     estimated scf accuracy    <       0.18111324 Ry

     iteration #  2     ecut=    45.00 Ry     beta= 0.10
     Davidson diagonalization with overlap
     ethr =  1.51E-03,  avg # of iterations =  1.0

     total cpu time spent up to now is        2.6 secs

     total energy              =    -141.16045269 Ry
     Harris-Foulkes estimate   =    -141.65388737 Ry
     estimated scf accuracy    <       0.15186355 Ry

     iteration #  3     ecut=    45.00 Ry     beta= 0.10
     Davidson diagonalization with overlap
     ethr =  1.27E-03,  avg # of iterations =  2.0

     total cpu time spent up to now is        3.2 secs

     total energy              =    -141.23770927 Ry
     Harris-Foulkes estimate   =    -141.24764487 Ry
     estimated scf accuracy    <       0.01480305 Ry

     iteration #  4     ecut=    45.00 Ry     beta= 0.10
     Davidson diagonalization with overlap
     ethr =  1.23E-04,  avg # of iterations =  1.0

     total cpu time spent up to now is        3.7 secs

     total energy              =    -141.24049948 Ry
     Harris-Foulkes estimate   =    -141.23823819 Ry
     estimated scf accuracy    <       0.01148008 Ry

     iteration #  5     ecut=    45.00 Ry     beta= 0.10
     Davidson diagonalization with overlap
     ethr =  9.57E-05,  avg # of iterations =  1.6

     total cpu time spent up to now is        4.3 secs

     total energy              =    -141.24238401 Ry
     Harris-Foulkes estimate   =    -141.24164501 Ry
     estimated scf accuracy    <       0.00053793 Ry

     iteration #  6     ecut=    45.00 Ry     beta= 0.10
     Davidson diagonalization with overlap
     ethr =  4.48E-06,  avg # of iterations =  2.5

     total cpu time spent up to now is        4.9 secs

     total energy              =    -141.24257540 Ry
     Harris-Foulkes estimate   =    -141.24255776 Ry
     estimated scf accuracy    <       0.00011634 Ry

     iteration #  7     ecut=    45.00 Ry     beta= 0.10
     Davidson diagonalization with overlap
     ethr =  9.70E-07,  avg # of iterations =  1.1

     total cpu time spent up to now is        5.4 secs

     total energy              =    -141.24181746 Ry
     Harris-Foulkes estimate   =    -141.24257747 Ry
     estimated scf accuracy    <       0.00010318 Ry

     iteration #  8     ecut=    45.00 Ry     beta= 0.10
     Davidson diagonalization with overlap
     ethr =  8.60E-07,  avg # of iterations =  2.0

     total cpu time spent up to now is        6.0 secs

     total energy              =    -141.24187302 Ry
     Harris-Foulkes estimate   =    -141.24186470 Ry
     estimated scf accuracy    <       0.00001033 Ry

     iteration #  9     ecut=    45.00 Ry     beta= 0.10
     Davidson diagonalization with overlap
     ethr =  8.61E-08,  avg # of iterations =  1.4

     total cpu time spent up to now is        6.5 secs

     total energy              =    -141.24177597 Ry
     Harris-Foulkes estimate   =    -141.24187348 Ry
     estimated scf accuracy    <       0.00000565 Ry

     iteration # 10     ecut=    45.00 Ry     beta= 0.10
     Davidson diagonalization with overlap
     ethr =  4.71E-08,  avg # of iterations =  3.0

     total cpu time spent up to now is        7.1 secs

     total energy              =    -141.24178493 Ry
     Harris-Foulkes estimate   =    -141.24178493 Ry
     estimated scf accuracy    <       0.00000124 Ry

     iteration # 11     ecut=    45.00 Ry     beta= 0.10
     Davidson diagonalization with overlap
     ethr =  1.04E-08,  avg # of iterations =  1.0

     total cpu time spent up to now is        7.6 secs

     total energy              =    -141.24178540 Ry
     Harris-Foulkes estimate   =    -141.24178493 Ry
     estimated scf accuracy    <       0.00000121 Ry

     iteration # 12     ecut=    45.00 Ry     beta= 0.10
     Davidson diagonalization with overlap
     ethr =  1.01E-08,  avg # of iterations =  1.1

     total cpu time spent up to now is        8.2 secs

     End of self-consistent calculation

          k = 0.1250 0.1250 0.1250 (   338 PWs)   bands (ev):

    30.9130  41.4376  41.4567  41.4755  52.4314  52.4517  52.4719  54.9311
    54.9410  54.9510

          k = 0.1250 0.1250 0.3750 (   338 PWs)   bands (ev):

    34.4057  39.0125  43.9425  43.9614  51.8126  51.8299  54.8784  54.8871
    55.6947  61.5182

          k = 0.1250 0.3750 0.3750 (   340 PWs)   bands (ev):

    37.4210  41.6561  41.6931  44.5484  50.4952  52.9079  52.9571  57.0485
    57.5697  60.7335

          k = 0.3750 0.3750 0.3750 (   326 PWs)   bands (ev):

    39.8870  43.9758  44.0138  44.0516  47.7757  47.8172  47.8588  51.6518
    66.9741  66.9797

          k =-0.1250-0.1250 0.1250 (   338 PWs)   bands (ev):

    30.9130  41.4416  41.4567  41.4715  52.4357  52.4516  52.4676  54.9332
    54.9411  54.9489

          k =-0.1250 0.1250-0.1250 (   338 PWs)   bands (ev):

    30.9129  41.4455  41.4566  41.4676  52.4398  52.4517  52.4634  54.9353
    54.9410  54.9469

          k = 0.1250-0.1250-0.1250 (   338 PWs)   bands (ev):

    30.9129  41.4434  41.4567  41.4697  52.4376  52.4517  52.4657  54.9342
    54.9410  54.9480

          k =-0.1250-0.1250 0.3750 (   338 PWs)   bands (ev):

    34.4057  39.0126  43.9425  43.9613  51.8127  51.8299  54.8784  54.8871
    55.6944  61.5181

          k =-0.1250 0.1250-0.3750 (   338 PWs)   bands (ev):

    34.4057  39.0126  43.9476  43.9562  51.8173  51.8252  54.8808  54.8847
    55.6945  61.5181

          k = 0.1250-0.1250-0.3750 (   338 PWs)   bands (ev):

    34.4057  39.0125  43.9476  43.9563  51.8173  51.8252  54.8807  54.8847
    55.6947  61.5176

          k = 0.3750-0.1250 0.1250 (   338 PWs)   bands (ev):

    34.4057  39.0124  43.9476  43.9563  51.8171  51.8251  54.8809  54.8849
    55.6947  61.5180

          k =-0.3750-0.1250-0.1250 (   338 PWs)   bands (ev):

    34.4057  39.0124  43.9439  43.9600  51.8140  51.8287  54.8787  54.8861
    55.6953  61.5181

          k = 0.3750 0.1250-0.1250 (   338 PWs)   bands (ev):

    34.4057  39.0124  43.9476  43.9564  51.8171  51.8251  54.8809  54.8849
    55.6947  61.5181

          k =-0.3750 0.1250 0.1250 (   338 PWs)   bands (ev):

    34.4057  39.0124  43.9439  43.9600  51.8140  51.8287  54.8788  54.8862
    55.6949  61.5181

          k =-0.1250 0.3750 0.1250 (   338 PWs)   bands (ev):

    34.4057  39.0124  43.9509  43.9533  51.8202  51.8224  54.8821  54.8832
    55.6946  61.5183

          k =-0.1250-0.3750-0.1250 (   338 PWs)   bands (ev):

    34.4057  39.0123  43.9474  43.9568  51.8169  51.8255  54.8806  54.8849
    55.6947  61.5182

          k = 0.1250 0.3750-0.1250 (   338 PWs)   bands (ev):

    34.4057  39.0124  43.9509  43.9533  51.8201  51.8223  54.8819  54.8831
    55.6950  61.5180

          k = 0.1250-0.3750 0.1250 (   338 PWs)   bands (ev):

    34.4057  39.0124  43.9474  43.9568  51.8169  51.8255  54.8805  54.8849
    55.6946  61.5181

          k =-0.1250-0.3750 0.3750 (   340 PWs)   bands (ev):

    37.4210  41.6646  41.6847  44.5483  50.4953  52.9190  52.9459  57.0479
    57.5706  60.7362

          k =-0.1250 0.3750-0.3750 (   340 PWs)   bands (ev):

    37.4210  41.6646  41.6847  44.5483  50.4953  52.9190  52.9458  57.0475
    57.5711  60.7363

          k = 0.1250-0.3750-0.3750 (   340 PWs)   bands (ev):

    37.4210  41.6561  41.6931  44.5485  50.4952  52.9079  52.9571  57.0481
    57.5700  60.7347

          k = 0.3750 0.1250-0.3750 (   340 PWs)   bands (ev):

    37.4210  41.6718  41.6774  44.5483  50.4951  52.9289  52.9363  57.0486
    57.5699  60.7381

          k =-0.3750-0.1250-0.3750 (   340 PWs)   bands (ev):

    37.4210  41.6638  41.6854  44.5482  50.4954  52.9182  52.9471  57.0487
    57.5695  60.7413

          k = 0.3750-0.1250 0.3750 (   340 PWs)   bands (ev):

    37.4210  41.6638  41.6855  44.5483  50.4952  52.9181  52.9470  57.0489
    57.5697  60.7362

          k =-0.3750 0.1250 0.3750 (   340 PWs)   bands (ev):

    37.4210  41.6718  41.6774  44.5483  50.4953  52.9290  52.9364  57.0482
    57.5700  60.7384

          k = 0.3750-0.3750 0.1250 (   340 PWs)   bands (ev):

    37.4210  41.6646  41.6846  44.5484  50.4950  52.9192  52.9457  57.0488
    57.5697  60.7413

          k =-0.3750-0.3750-0.1250 (   340 PWs)   bands (ev):

    37.4211  41.6529  41.6963  44.5483  50.4954  52.9036  52.9614  57.0467
    57.5717  60.7322

          k = 0.3750 0.3750-0.1250 (   340 PWs)   bands (ev):

    37.4211  41.6529  41.6963  44.5483  50.4952  52.9035  52.9613  57.0488
    57.5697  60.7340

          k =-0.3750 0.3750 0.1250 (   340 PWs)   bands (ev):

    37.4210  41.6646  41.6845  44.5483  50.4953  52.9193  52.9458  57.0441
    57.5742  60.7367

          k =-0.3750-0.3750 0.3750 (   326 PWs)   bands (ev):

    39.8870  43.9838  44.0139  44.0436  47.7844  47.8171  47.8500  51.6519
    66.9748  66.9775

          k =-0.3750 0.3750-0.3750 (   326 PWs)   bands (ev):

    39.8869  43.9915  44.0138  44.0359  47.7929  47.8172  47.8415  51.6519
    66.9762  66.9781

          k = 0.3750-0.3750-0.3750 (   326 PWs)   bands (ev):

    39.8870  43.9874  44.0137  44.0400  47.7885  47.8172  47.8461  51.6518
    66.9764  66.9788

     the Fermi energy is    52.6631 ev

!    total energy              =    -141.24178468 Ry
     Harris-Foulkes estimate   =    -141.24178546 Ry
     estimated scf accuracy    <       0.00000070 Ry

     total all-electron energy =     -1925.812907 Ry

     The total energy is the sum of the following terms:

     one-electron contribution =      58.67413148 Ry
     hartree contribution      =       0.21202296 Ry
     xc contribution           =     -17.28549495 Ry
     ewald contribution        =     -40.85514765 Ry
     one-center paw contrib.   =    -141.98665320 Ry
     smearing contrib. (-TS)   =      -0.00064332 Ry

     convergence has been achieved in  12 iterations

     Forces acting on atoms (cartesian axes, Ry/au):

     atom    1 type  1   force =     0.00200551   -0.00039269    0.01641772
     atom    2 type  1   force =    -0.00323560    0.00366393    0.01639407
     atom    3 type  1   force =    -0.00058746   -0.00068174   -0.01727656
     atom    4 type  1   force =     0.00181755   -0.00258949   -0.01553523

     Total force =     0.033422     Total SCF correction =     0.000006


     Computing stress (Cartesian axis) and pressure

          total   stress  (Ry/bohr**3)                   (kbar)     P=59676.79
   0.40568012   0.00000126   0.00000072      59677.60      0.19      0.11
   0.00000126   0.40566878  -0.00000097          0.19  59675.93     -0.14
   0.00000072  -0.00000097   0.40567501          0.11     -0.14  59676.84


     Writing output data file fe_scf_fcc_2.save/

     init_run     :      0.69s CPU      0.70s WALL (       1 calls)
     electrons    :      6.93s CPU      6.99s WALL (       1 calls)
     forces       :      0.04s CPU      0.05s WALL (       1 calls)
     stress       :      0.12s CPU      0.12s WALL (       1 calls)

     Called by init_run:
     wfcinit      :      0.19s CPU      0.19s WALL (       1 calls)
     potinit      :      0.27s CPU      0.27s WALL (       1 calls)
     hinit0       :      0.23s CPU      0.23s WALL (       1 calls)

     Called by electrons:
     c_bands      :      3.13s CPU      3.16s WALL (      12 calls)
     sum_band     :      0.65s CPU      0.67s WALL (      12 calls)
     v_of_rho     :      0.08s CPU      0.07s WALL (      13 calls)
     newd         :      0.06s CPU      0.07s WALL (      13 calls)
     PAW_pot      :      3.24s CPU      3.26s WALL (      13 calls)
     mix_rho      :      0.01s CPU      0.01s WALL (      12 calls)

     Called by c_bands:
     init_us_2    :      0.08s CPU      0.11s WALL (     864 calls)
     cegterg      :      3.02s CPU      3.00s WALL (     384 calls)

     Called by sum_band:
     sum_band:bec :      0.00s CPU      0.00s WALL (     384 calls)
     addusdens    :      0.04s CPU      0.05s WALL (      12 calls)

     Called by *egterg:
     h_psi        :      2.58s CPU      2.56s WALL (    1139 calls)
     s_psi        :      0.10s CPU      0.09s WALL (    1139 calls)
     g_psi        :      0.00s CPU      0.01s WALL (     723 calls)
     cdiaghg      :      0.27s CPU      0.22s WALL (    1107 calls)

     Called by h_psi:
     h_psi:pot    :      2.56s CPU      2.55s WALL (    1139 calls)
     h_psi:calbec :      0.08s CPU      0.11s WALL (    1139 calls)
     vloc_psi     :      2.37s CPU      2.34s WALL (    1139 calls)
     add_vuspsi   :      0.10s CPU      0.10s WALL (    1139 calls)

     General routines
     calbec       :      0.15s CPU      0.16s WALL (    1683 calls)
     fft          :      0.02s CPU      0.02s WALL (     193 calls)
     ffts         :      0.01s CPU      0.01s WALL (      25 calls)
     fftw         :      2.63s CPU      2.64s WALL (   23648 calls)
     interpolate  :      0.01s CPU      0.01s WALL (      13 calls)

     Parallel routines

     PWSCF        :     8.27s CPU         8.37s WALL


   This run was terminated on:   2:49:38  20Oct2019            

=------------------------------------------------------------------------------=
   JOB DONE.
=------------------------------------------------------------------------------=
