
     Program PWSCF v.6.3 starts on 20Oct2019 at  1: 6:54 

     This program is part of the open-source Quantum ESPRESSO suite
     for quantum simulation of materials; please cite
         "P. Giannozzi et al., J. Phys.:Condens. Matter 21 395502 (2009);
         "P. Giannozzi et al., J. Phys.:Condens. Matter 29 465901 (2017);
          URL http://www.quantum-espresso.org", 
     in publications or presentations arising from this work. More details at
     http://www.quantum-espresso.org/quote

     Parallel version (MPI), running on     1 processors

     MPI processes distributed on     1 nodes
     Reading input from /cloud/Code/python/py_pwscf_converge/src/example/wd/runpwscf/file_10021.in
Warning: card &IONS ignored
Warning: card ION_DYNAMICS = 'BFGS', ignored
Warning: card / ignored
Warning: card &CELL ignored
Warning: card CELL_DYNAMICS = 'BFGS', ignored
Warning: card CELL_FACTOR = 2.0, ignored
Warning: card PRESS = 0.0, ignored
Warning: card / ignored

     Current dimensions of program PWSCF are:
     Max number of different atomic species (ntypx) = 10
     Max number of k-points (npk) =  40000
     Max angular momentum in pseudopotentials (lmaxx) =  3
               file Al.pbe-nl-kjpaw_psl.1.0.0.UPF: wavefunction(s)  3S 3P renormalized

     Subspace diagonalization in iterative solution of the eigenvalue problem:
     a serial algorithm will be used


     G-vector sticks info
     --------------------
     sticks:   dense  smooth     PW     G-vecs:    dense   smooth      PW
     Sum         177     177    121                 1839     1839    1021



     bravais-lattice index     =            0
     lattice parameter (alat)  =       4.0400  a.u.
     unit-cell volume          =      65.9393 (a.u.)^3
     number of atoms/cell      =            4
     number of atomic types    =            1
     number of electrons       =        12.00
     number of Kohn-Sham states=           10
     kinetic-energy cutoff     =      75.0000  Ry
     charge density cutoff     =     140.0000  Ry
     convergence threshold     =      1.0E-06
     mixing beta               =       0.1000
     number of iterations used =           10  TF        mixing
     Exchange-correlation      = SLA PW PBX PBC ( 1  4  3  4 0 0)

     celldm(1)=   4.040000  celldm(2)=   0.000000  celldm(3)=   0.000000
     celldm(4)=   0.000000  celldm(5)=   0.000000  celldm(6)=   0.000000

     crystal axes: (cart. coord. in units of alat)
               a(1) = (   1.000000   0.000000   0.000000 )  
               a(2) = (   0.000000   1.000000   0.000000 )  
               a(3) = (   0.000000   0.000000   1.000000 )  

     reciprocal axes: (cart. coord. in units 2 pi/alat)
               b(1) = (  1.000000  0.000000  0.000000 )  
               b(2) = (  0.000000  1.000000  0.000000 )  
               b(3) = (  0.000000  0.000000  1.000000 )  


     PseudoPot. # 1 for Al read from file:
     /opt/pp/Al.pbe-nl-kjpaw_psl.1.0.0.UPF
     MD5 check sum: 1b67f78b73fe58c7924490f171ce8a1e
     Pseudo is Projector augmented-wave + core cor, Zval =  3.0
     Generated using "atomic" code by A. Dal Corso v.6.3
     Shape of augmentation charge: PSQ
     Using radial grid of 1135 points,  4 beta functions with: 
                l(1) =   0
                l(2) =   0
                l(3) =   1
                l(4) =   1
     Q(r) pseudized with 0 coefficients 


     atomic species   valence    mass     pseudopotential
        Al             3.00    26.98200     Al( 1.00)

     No symmetry found



   Cartesian axes

     site n.     atom                  positions (alat units)
         1           Al  tau(   1) = (  -0.0001235   0.0000359   0.0002572  )
         2           Al  tau(   2) = (   0.5003009   0.4992819   0.0002658  )
         3           Al  tau(   3) = (   0.4996490   0.0001153   0.5011170  )
         4           Al  tau(   4) = (  -0.0000756   0.5008267   0.5006943  )

     number of k points=    32  Marzari-Vanderbilt smearing, width (Ry)=  0.0200
                       cart. coord. in units 2pi/alat
        k(    1) = (   0.1250000   0.1250000   0.1250000), wk =   0.0625000
        k(    2) = (   0.1250000   0.1250000   0.3750000), wk =   0.0625000
        k(    3) = (   0.1250000   0.3750000   0.3750000), wk =   0.0625000
        k(    4) = (   0.3750000   0.3750000   0.3750000), wk =   0.0625000
        k(    5) = (  -0.1250000  -0.1250000   0.1250000), wk =   0.0625000
        k(    6) = (  -0.1250000   0.1250000  -0.1250000), wk =   0.0625000
        k(    7) = (   0.1250000  -0.1250000  -0.1250000), wk =   0.0625000
        k(    8) = (  -0.1250000  -0.1250000   0.3750000), wk =   0.0625000
        k(    9) = (  -0.1250000   0.1250000  -0.3750000), wk =   0.0625000
        k(   10) = (   0.1250000  -0.1250000  -0.3750000), wk =   0.0625000
        k(   11) = (   0.3750000  -0.1250000   0.1250000), wk =   0.0625000
        k(   12) = (  -0.3750000  -0.1250000  -0.1250000), wk =   0.0625000
        k(   13) = (   0.3750000   0.1250000  -0.1250000), wk =   0.0625000
        k(   14) = (  -0.3750000   0.1250000   0.1250000), wk =   0.0625000
        k(   15) = (  -0.1250000   0.3750000   0.1250000), wk =   0.0625000
        k(   16) = (  -0.1250000  -0.3750000  -0.1250000), wk =   0.0625000
        k(   17) = (   0.1250000   0.3750000  -0.1250000), wk =   0.0625000
        k(   18) = (   0.1250000  -0.3750000   0.1250000), wk =   0.0625000
        k(   19) = (  -0.1250000  -0.3750000   0.3750000), wk =   0.0625000
        k(   20) = (  -0.1250000   0.3750000  -0.3750000), wk =   0.0625000
        k(   21) = (   0.1250000  -0.3750000  -0.3750000), wk =   0.0625000
        k(   22) = (   0.3750000   0.1250000  -0.3750000), wk =   0.0625000
        k(   23) = (  -0.3750000  -0.1250000  -0.3750000), wk =   0.0625000
        k(   24) = (   0.3750000  -0.1250000   0.3750000), wk =   0.0625000
        k(   25) = (  -0.3750000   0.1250000   0.3750000), wk =   0.0625000
        k(   26) = (   0.3750000  -0.3750000   0.1250000), wk =   0.0625000
        k(   27) = (  -0.3750000  -0.3750000  -0.1250000), wk =   0.0625000
        k(   28) = (   0.3750000   0.3750000  -0.1250000), wk =   0.0625000
        k(   29) = (  -0.3750000   0.3750000   0.1250000), wk =   0.0625000
        k(   30) = (  -0.3750000  -0.3750000   0.3750000), wk =   0.0625000
        k(   31) = (  -0.3750000   0.3750000  -0.3750000), wk =   0.0625000
        k(   32) = (   0.3750000  -0.3750000  -0.3750000), wk =   0.0625000

     Dense  grid:     1839 G-vectors     FFT dimensions: (  15,  15,  15)

     Estimated max dynamical RAM per process >       6.78 MB

     Initial potential from superposition of free atoms

     starting charge   11.99084, renormalised to   12.00000
     Starting wfcs are   16 randomized atomic wfcs
     Checking if some PAW data can be deallocated... 

     total cpu time spent up to now is        1.0 secs

     Self-consistent Calculation

     iteration #  1     ecut=    75.00 Ry     beta= 0.10
     Davidson diagonalization with overlap
     ethr =  1.00E-02,  avg # of iterations =  4.9

     total cpu time spent up to now is        1.7 secs

     total energy              =    -141.65278812 Ry
     Harris-Foulkes estimate   =    -141.80708274 Ry
     estimated scf accuracy    <       0.18114539 Ry

     iteration #  2     ecut=    75.00 Ry     beta= 0.10
     Davidson diagonalization with overlap
     ethr =  1.51E-03,  avg # of iterations =  1.0

     total cpu time spent up to now is        2.1 secs

     total energy              =    -141.16257136 Ry
     Harris-Foulkes estimate   =    -141.65536266 Ry
     estimated scf accuracy    <       0.15208150 Ry

     iteration #  3     ecut=    75.00 Ry     beta= 0.10
     Davidson diagonalization with overlap
     ethr =  1.27E-03,  avg # of iterations =  2.0

     total cpu time spent up to now is        2.6 secs

     total energy              =    -141.24355495 Ry
     Harris-Foulkes estimate   =    -141.25584875 Ry
     estimated scf accuracy    <       0.01566299 Ry

     iteration #  4     ecut=    75.00 Ry     beta= 0.10
     Davidson diagonalization with overlap
     ethr =  1.31E-04,  avg # of iterations =  1.0

     total cpu time spent up to now is        3.0 secs

     total energy              =    -141.24151760 Ry
     Harris-Foulkes estimate   =    -141.24399664 Ry
     estimated scf accuracy    <       0.01246604 Ry

     iteration #  5     ecut=    75.00 Ry     beta= 0.10
     Davidson diagonalization with overlap
     ethr =  1.04E-04,  avg # of iterations =  1.0

     total cpu time spent up to now is        3.4 secs

     total energy              =    -141.24347489 Ry
     Harris-Foulkes estimate   =    -141.24259729 Ry
     estimated scf accuracy    <       0.00074210 Ry

     iteration #  6     ecut=    75.00 Ry     beta= 0.10
     Davidson diagonalization with overlap
     ethr =  6.18E-06,  avg # of iterations =  2.8

     total cpu time spent up to now is        3.9 secs

     total energy              =    -141.24373414 Ry
     Harris-Foulkes estimate   =    -141.24373334 Ry
     estimated scf accuracy    <       0.00010465 Ry

     iteration #  7     ecut=    75.00 Ry     beta= 0.10
     Davidson diagonalization with overlap
     ethr =  8.72E-07,  avg # of iterations =  1.2

     total cpu time spent up to now is        4.3 secs

     total energy              =    -141.24273819 Ry
     Harris-Foulkes estimate   =    -141.24373539 Ry
     estimated scf accuracy    <       0.00009322 Ry

     iteration #  8     ecut=    75.00 Ry     beta= 0.10
     Davidson diagonalization with overlap
     ethr =  7.77E-07,  avg # of iterations =  2.8

     total cpu time spent up to now is        4.8 secs

     total energy              =    -141.24288801 Ry
     Harris-Foulkes estimate   =    -141.24282795 Ry
     estimated scf accuracy    <       0.00002875 Ry

     iteration #  9     ecut=    75.00 Ry     beta= 0.10
     Davidson diagonalization with overlap
     ethr =  2.40E-07,  avg # of iterations =  2.0

     total cpu time spent up to now is        5.2 secs

     total energy              =    -141.24280520 Ry
     Harris-Foulkes estimate   =    -141.24289253 Ry
     estimated scf accuracy    <       0.00000884 Ry

     iteration # 10     ecut=    75.00 Ry     beta= 0.10
     Davidson diagonalization with overlap
     ethr =  7.36E-08,  avg # of iterations =  2.9

     total cpu time spent up to now is        5.7 secs

     total energy              =    -141.24281445 Ry
     Harris-Foulkes estimate   =    -141.24281447 Ry
     estimated scf accuracy    <       0.00000131 Ry

     iteration # 11     ecut=    75.00 Ry     beta= 0.10
     Davidson diagonalization with overlap
     ethr =  1.09E-08,  avg # of iterations =  1.5

     total cpu time spent up to now is        6.1 secs

     End of self-consistent calculation

          k = 0.1250 0.1250 0.1250 (   724 PWs)   bands (ev):

    30.9135  41.4369  41.4549  41.4747  52.4293  52.4497  52.4697  54.9315
    54.9414  54.9514

          k = 0.1250 0.1250 0.3750 (   733 PWs)   bands (ev):

    34.4064  39.0129  43.9418  43.9607  51.8117  51.8289  54.8777  54.8864
    55.6926  61.5167

          k = 0.1250 0.3750 0.3750 (   723 PWs)   bands (ev):

    37.4218  41.6566  41.6936  44.5486  50.4940  52.9066  52.9557  57.0467
    57.5684  60.7356

          k = 0.3750 0.3750 0.3750 (   717 PWs)   bands (ev):

    39.8874  43.9763  44.0138  44.0520  47.7749  47.8164  47.8579  51.6505
    66.9740  66.9784

          k =-0.1250-0.1250 0.1250 (   724 PWs)   bands (ev):

    30.9135  41.4407  41.4551  41.4706  52.4336  52.4495  52.4655  54.9336
    54.9414  54.9493

          k =-0.1250 0.1250-0.1250 (   724 PWs)   bands (ev):

    30.9135  41.4442  41.4559  41.4663  52.4377  52.4496  52.4613  54.9356
    54.9414  54.9473

          k = 0.1250-0.1250-0.1250 (   724 PWs)   bands (ev):

    30.9135  41.4424  41.4554  41.4687  52.4355  52.4497  52.4636  54.9345
    54.9414  54.9483

          k =-0.1250-0.1250 0.3750 (   733 PWs)   bands (ev):

    34.4064  39.0130  43.9418  43.9606  51.8117  51.8290  54.8777  54.8864
    55.6923  61.5169

          k =-0.1250 0.1250-0.3750 (   733 PWs)   bands (ev):

    34.4064  39.0130  43.9469  43.9556  51.8163  51.8242  54.8801  54.8841
    55.6924  61.5167

          k = 0.1250-0.1250-0.3750 (   733 PWs)   bands (ev):

    34.4064  39.0129  43.9469  43.9556  51.8163  51.8242  54.8801  54.8841
    55.6926  61.5166

          k = 0.3750-0.1250 0.1250 (   733 PWs)   bands (ev):

    34.4065  39.0128  43.9469  43.9556  51.8161  51.8241  54.8802  54.8843
    55.6926  61.5170

          k =-0.3750-0.1250-0.1250 (   733 PWs)   bands (ev):

    34.4065  39.0128  43.9433  43.9593  51.8130  51.8277  54.8780  54.8854
    55.6932  61.5169

          k = 0.3750 0.1250-0.1250 (   733 PWs)   bands (ev):

    34.4065  39.0128  43.9469  43.9557  51.8161  51.8241  54.8802  54.8843
    55.6926  61.5169

          k =-0.3750 0.1250 0.1250 (   733 PWs)   bands (ev):

    34.4065  39.0128  43.9432  43.9593  51.8131  51.8278  54.8781  54.8855
    55.6928  61.5169

          k =-0.1250 0.3750 0.1250 (   733 PWs)   bands (ev):

    34.4065  39.0128  43.9502  43.9526  51.8192  51.8215  54.8814  54.8825
    55.6925  61.5168

          k =-0.1250-0.3750-0.1250 (   733 PWs)   bands (ev):

    34.4065  39.0127  43.9467  43.9562  51.8159  51.8245  54.8799  54.8842
    55.6926  61.5169

          k = 0.1250 0.3750-0.1250 (   733 PWs)   bands (ev):

    34.4065  39.0127  43.9502  43.9526  51.8192  51.8214  54.8813  54.8825
    55.6928  61.5168

          k = 0.1250-0.3750 0.1250 (   733 PWs)   bands (ev):

    34.4065  39.0128  43.9467  43.9561  51.8160  51.8246  54.8799  54.8842
    55.6925  61.5169

          k =-0.1250-0.3750 0.3750 (   723 PWs)   bands (ev):

    37.4217  41.6650  41.6852  44.5485  50.4942  52.9177  52.9445  57.0460
    57.5693  60.7343

          k =-0.1250 0.3750-0.3750 (   723 PWs)   bands (ev):

    37.4217  41.6651  41.6852  44.5485  50.4941  52.9177  52.9445  57.0456
    57.5698  60.7359

          k = 0.1250-0.3750-0.3750 (   723 PWs)   bands (ev):

    37.4217  41.6566  41.6936  44.5487  50.4940  52.9066  52.9557  57.0463
    57.5686  60.7340

          k = 0.3750 0.1250-0.3750 (   723 PWs)   bands (ev):

    37.4217  41.6723  41.6778  44.5485  50.4940  52.9276  52.9350  57.0467
    57.5686  60.7364

          k =-0.3750-0.1250-0.3750 (   723 PWs)   bands (ev):

    37.4217  41.6642  41.6859  44.5484  50.4942  52.9169  52.9457  57.0469
    57.5682  60.7343

          k = 0.3750-0.1250 0.3750 (   723 PWs)   bands (ev):

    37.4217  41.6643  41.6860  44.5485  50.4941  52.9168  52.9456  57.0471
    57.5683  60.7359

          k =-0.3750 0.1250 0.3750 (   723 PWs)   bands (ev):

    37.4217  41.6723  41.6778  44.5485  50.4941  52.9276  52.9350  57.0463
    57.5686  60.7369

          k = 0.3750-0.3750 0.1250 (   723 PWs)   bands (ev):

    37.4218  41.6652  41.6850  44.5486  50.4938  52.9178  52.9444  57.0469
    57.5684  60.7366

          k =-0.3750-0.3750-0.1250 (   723 PWs)   bands (ev):

    37.4218  41.6534  41.6968  44.5485  50.4942  52.9022  52.9600  57.0448
    57.5703  60.7316

          k = 0.3750 0.3750-0.1250 (   723 PWs)   bands (ev):

    37.4218  41.6534  41.6968  44.5485  50.4940  52.9022  52.9600  57.0470
    57.5683  60.7316

          k =-0.3750 0.3750 0.1250 (   723 PWs)   bands (ev):

    37.4218  41.6651  41.6850  44.5485  50.4941  52.9180  52.9445  57.0423
    57.5729  60.7379

          k =-0.3750-0.3750 0.3750 (   717 PWs)   bands (ev):

    39.8873  43.9842  44.0140  44.0440  47.7837  47.8164  47.8492  51.6506
    66.9734  66.9759

          k =-0.3750 0.3750-0.3750 (   717 PWs)   bands (ev):

    39.8873  43.9918  44.0142  44.0360  47.7921  47.8164  47.8407  51.6506
    66.9741  66.9771

          k = 0.3750-0.3750-0.3750 (   717 PWs)   bands (ev):

    39.8873  43.9877  44.0140  44.0403  47.7877  47.8165  47.8453  51.6505
    66.9737  66.9780

     the Fermi energy is    52.6612 ev

!    total energy              =    -141.24281420 Ry
     Harris-Foulkes estimate   =    -141.24281457 Ry
     estimated scf accuracy    <       0.00000090 Ry

     total all-electron energy =     -1925.813936 Ry

     The total energy is the sum of the following terms:

     one-electron contribution =      58.67246269 Ry
     hartree contribution      =       0.21195078 Ry
     xc contribution           =     -17.28505755 Ry
     ewald contribution        =     -40.85514766 Ry
     one-center paw contrib.   =    -141.98639158 Ry
     smearing contrib. (-TS)   =      -0.00063088 Ry

     convergence has been achieved in  11 iterations

     Forces acting on atoms (cartesian axes, Ry/au):

     atom    1 type  1   force =     0.00201765   -0.00041756    0.01639080
     atom    2 type  1   force =    -0.00326146    0.00367310    0.01636263
     atom    3 type  1   force =    -0.00057204   -0.00064371   -0.01727502
     atom    4 type  1   force =     0.00181584   -0.00261183   -0.01547842

     Total force =     0.033371     Total SCF correction =     0.000015


     Computing stress (Cartesian axis) and pressure

          total   stress  (Ry/bohr**3)                   (kbar)     P=59673.34
   0.40565674   0.00000110   0.00000097      59674.16      0.16      0.14
   0.00000110   0.40564519  -0.00000086          0.16  59672.46     -0.13
   0.00000097  -0.00000086   0.40565155          0.14     -0.13  59673.39


     Writing output data file fe_scf_fcc_2.save/

     init_run     :      0.59s CPU      0.61s WALL (       1 calls)
     electrons    :      4.97s CPU      5.10s WALL (       1 calls)
     forces       :      0.05s CPU      0.05s WALL (       1 calls)
     stress       :      0.17s CPU      0.17s WALL (       1 calls)

     Called by init_run:
     wfcinit      :      0.13s CPU      0.13s WALL (       1 calls)
     potinit      :      0.24s CPU      0.25s WALL (       1 calls)
     hinit0       :      0.21s CPU      0.23s WALL (       1 calls)

     Called by electrons:
     c_bands      :      2.02s CPU      2.04s WALL (      11 calls)
     sum_band     :      0.30s CPU      0.31s WALL (      11 calls)
     v_of_rho     :      0.03s CPU      0.03s WALL (      12 calls)
     newd         :      0.02s CPU      0.03s WALL (      12 calls)
     PAW_pot      :      2.83s CPU      2.93s WALL (      12 calls)
     mix_rho      :      0.01s CPU      0.00s WALL (      11 calls)

     Called by c_bands:
     init_us_2    :      0.14s CPU      0.18s WALL (     800 calls)
     cegterg      :      1.75s CPU      1.77s WALL (     352 calls)

     Called by sum_band:
     sum_band:bec :      0.00s CPU      0.00s WALL (     352 calls)
     addusdens    :      0.02s CPU      0.02s WALL (      11 calls)

     Called by *egterg:
     h_psi        :      0.99s CPU      1.05s WALL (    1124 calls)
     s_psi        :      0.20s CPU      0.16s WALL (    1124 calls)
     g_psi        :      0.04s CPU      0.03s WALL (     740 calls)
     cdiaghg      :      0.22s CPU      0.18s WALL (    1092 calls)

     Called by h_psi:
     h_psi:pot    :      0.96s CPU      1.03s WALL (    1124 calls)
     h_psi:calbec :      0.14s CPU      0.15s WALL (    1124 calls)
     vloc_psi     :      0.62s CPU      0.71s WALL (    1124 calls)
     add_vuspsi   :      0.19s CPU      0.16s WALL (    1124 calls)

     General routines
     calbec       :      0.21s CPU      0.23s WALL (    1636 calls)
     fft          :      0.01s CPU      0.00s WALL (     158 calls)
     ffts         :      0.00s CPU      0.00s WALL (      11 calls)
     fftw         :      0.66s CPU      0.70s WALL (   22286 calls)

     Parallel routines

     PWSCF        :     6.21s CPU         6.38s WALL


   This run was terminated on:   1: 7: 0  20Oct2019            

=------------------------------------------------------------------------------=
   JOB DONE.
=------------------------------------------------------------------------------=
