
     Program PWSCF v.6.3 starts on 22Oct2019 at 19: 3:51 

     This program is part of the open-source Quantum ESPRESSO suite
     for quantum simulation of materials; please cite
         "P. Giannozzi et al., J. Phys.:Condens. Matter 21 395502 (2009);
         "P. Giannozzi et al., J. Phys.:Condens. Matter 29 465901 (2017);
          URL http://www.quantum-espresso.org", 
     in publications or presentations arising from this work. More details at
     http://www.quantum-espresso.org/quote

     Parallel version (MPI & OpenMP), running on      20 processor cores
     Number of MPI processes:                20
     Threads/MPI process:                     1

     MPI processes distributed on     1 nodes
     R & G space division:  proc/nbgrp/npool/nimage =      20
     Reading input from /rds/homes/b/bxp912/jobs/20191022_test/wd/runpwscf/file_10081.in
Warning: card &IONS ignored
Warning: card ION_DYNAMICS = 'BFGS', ignored
Warning: card / ignored
Warning: card &CELL ignored
Warning: card CELL_DYNAMICS = 'BFGS', ignored
Warning: card CELL_FACTOR = 2.0, ignored
Warning: card PRESS = 0.0, ignored
Warning: card / ignored

     Current dimensions of program PWSCF are:
     Max number of different atomic species (ntypx) = 10
     Max number of k-points (npk) =  40000
     Max angular momentum in pseudopotentials (lmaxx) =  3
     Message from routine read_upf::
     Pseudo file /rds/homes/b/bxp912/pp/Al.pbe-nl-kjpaw_psl.1.0.0.UPF has been successfully fixed on the fly.
To avoid this message in the future you can permanently fix 
 your pseudo files following instructions given in: 
https://gitlab.com/QEF/q-e/blob/master/upftools/how_to_fix_upf.md
               file Al.pbe-nl-kjpaw_psl.1.0.0.UPF: wavefunction(s)  3S 3P renormalized

     Subspace diagonalization in iterative solution of the eigenvalue problem:
     a serial algorithm will be used

 
     Parallelization info
     --------------------
     sticks:   dense  smooth     PW     G-vecs:    dense   smooth      PW
     Min           7       7      6                   69       69      50
     Max           8       8      7                   74       74      53
     Sum         149     149    121                 1419     1419    1021
 


     bravais-lattice index     =            0
     lattice parameter (alat)  =       4.0400  a.u.
     unit-cell volume          =      65.9393 (a.u.)^3
     number of atoms/cell      =            4
     number of atomic types    =            1
     number of electrons       =        12.00
     number of Kohn-Sham states=           10
     kinetic-energy cutoff     =      75.0000  Ry
     charge density cutoff     =     120.0000  Ry
     convergence threshold     =      1.0E-06
     mixing beta               =       0.1000
     number of iterations used =           10  TF        mixing
     Exchange-correlation      = SLA PW PBX PBC ( 1  4  3  4 0 0)

     celldm(1)=   4.040000  celldm(2)=   0.000000  celldm(3)=   0.000000
     celldm(4)=   0.000000  celldm(5)=   0.000000  celldm(6)=   0.000000

     crystal axes: (cart. coord. in units of alat)
               a(1) = (   1.000000   0.000000   0.000000 )  
               a(2) = (   0.000000   1.000000   0.000000 )  
               a(3) = (   0.000000   0.000000   1.000000 )  

     reciprocal axes: (cart. coord. in units 2 pi/alat)
               b(1) = (  1.000000  0.000000  0.000000 )  
               b(2) = (  0.000000  1.000000  0.000000 )  
               b(3) = (  0.000000  0.000000  1.000000 )  


     PseudoPot. # 1 for Al read from file:
     /rds/homes/b/bxp912/pp/Al.pbe-nl-kjpaw_psl.1.0.0.UPF
     MD5 check sum: 339dbea23cf3ab9a065ad45c0f9085d7
     Pseudo is Projector augmented-wave + core cor, Zval =  3.0
     Generated using "atomic" code by A. Dal Corso v.5.1
     Shape of augmentation charge: PSQ
     Using radial grid of 1135 points,  4 beta functions with: 
                l(1) =   0
                l(2) =   0
                l(3) =   1
                l(4) =   1
     Q(r) pseudized with 0 coefficients 


     atomic species   valence    mass     pseudopotential
        Al             3.00    26.98200     Al( 1.00)

     No symmetry found



   Cartesian axes

     site n.     atom                  positions (alat units)
         1           Al  tau(   1) = (  -0.0001235   0.0000359   0.0002572  )
         2           Al  tau(   2) = (   0.5003009   0.4992819   0.0002658  )
         3           Al  tau(   3) = (   0.4996490   0.0001153   0.5011170  )
         4           Al  tau(   4) = (  -0.0000756   0.5008267   0.5006943  )

     number of k points=    32  Marzari-Vanderbilt smearing, width (Ry)=  0.0200
                       cart. coord. in units 2pi/alat
        k(    1) = (   0.1250000   0.1250000   0.1250000), wk =   0.0625000
        k(    2) = (   0.1250000   0.1250000   0.3750000), wk =   0.0625000
        k(    3) = (   0.1250000   0.3750000   0.3750000), wk =   0.0625000
        k(    4) = (   0.3750000   0.3750000   0.3750000), wk =   0.0625000
        k(    5) = (  -0.1250000  -0.1250000   0.1250000), wk =   0.0625000
        k(    6) = (  -0.1250000   0.1250000  -0.1250000), wk =   0.0625000
        k(    7) = (   0.1250000  -0.1250000  -0.1250000), wk =   0.0625000
        k(    8) = (  -0.1250000  -0.1250000   0.3750000), wk =   0.0625000
        k(    9) = (  -0.1250000   0.1250000  -0.3750000), wk =   0.0625000
        k(   10) = (   0.1250000  -0.1250000  -0.3750000), wk =   0.0625000
        k(   11) = (   0.3750000  -0.1250000   0.1250000), wk =   0.0625000
        k(   12) = (  -0.3750000  -0.1250000  -0.1250000), wk =   0.0625000
        k(   13) = (   0.3750000   0.1250000  -0.1250000), wk =   0.0625000
        k(   14) = (  -0.3750000   0.1250000   0.1250000), wk =   0.0625000
        k(   15) = (  -0.1250000   0.3750000   0.1250000), wk =   0.0625000
        k(   16) = (  -0.1250000  -0.3750000  -0.1250000), wk =   0.0625000
        k(   17) = (   0.1250000   0.3750000  -0.1250000), wk =   0.0625000
        k(   18) = (   0.1250000  -0.3750000   0.1250000), wk =   0.0625000
        k(   19) = (  -0.1250000  -0.3750000   0.3750000), wk =   0.0625000
        k(   20) = (  -0.1250000   0.3750000  -0.3750000), wk =   0.0625000
        k(   21) = (   0.1250000  -0.3750000  -0.3750000), wk =   0.0625000
        k(   22) = (   0.3750000   0.1250000  -0.3750000), wk =   0.0625000
        k(   23) = (  -0.3750000  -0.1250000  -0.3750000), wk =   0.0625000
        k(   24) = (   0.3750000  -0.1250000   0.3750000), wk =   0.0625000
        k(   25) = (  -0.3750000   0.1250000   0.3750000), wk =   0.0625000
        k(   26) = (   0.3750000  -0.3750000   0.1250000), wk =   0.0625000
        k(   27) = (  -0.3750000  -0.3750000  -0.1250000), wk =   0.0625000
        k(   28) = (   0.3750000   0.3750000  -0.1250000), wk =   0.0625000
        k(   29) = (  -0.3750000   0.3750000   0.1250000), wk =   0.0625000
        k(   30) = (  -0.3750000  -0.3750000   0.3750000), wk =   0.0625000
        k(   31) = (  -0.3750000   0.3750000  -0.3750000), wk =   0.0625000
        k(   32) = (   0.3750000  -0.3750000  -0.3750000), wk =   0.0625000

     Dense  grid:     1419 G-vectors     FFT dimensions: (  15,  15,  15)

     Estimated max dynamical RAM per process >       0.55 MB

     Estimated total dynamical RAM >      11.08 MB

     Initial potential from superposition of free atoms

     starting charge   11.99084, renormalised to   12.00000
     Starting wfcs are   16 randomized atomic wfcs
     Checking if some PAW data can be deallocated... 

     total cpu time spent up to now is        0.7 secs

     Self-consistent Calculation

     iteration #  1     ecut=    75.00 Ry     beta= 0.10
     Davidson diagonalization with overlap
     ethr =  1.00E-02,  avg # of iterations =  4.9

     total cpu time spent up to now is        0.9 secs

     total energy              =    -141.65281429 Ry
     Harris-Foulkes estimate   =    -141.80710051 Ry
     estimated scf accuracy    <       0.18118831 Ry

     iteration #  2     ecut=    75.00 Ry     beta= 0.10
     Davidson diagonalization with overlap
     ethr =  1.51E-03,  avg # of iterations =  1.0

     total cpu time spent up to now is        1.0 secs

     total energy              =    -141.16256404 Ry
     Harris-Foulkes estimate   =    -141.65539217 Ry
     estimated scf accuracy    <       0.15211053 Ry

     iteration #  3     ecut=    75.00 Ry     beta= 0.10
     Davidson diagonalization with overlap
     ethr =  1.27E-03,  avg # of iterations =  2.0

     total cpu time spent up to now is        1.1 secs

     total energy              =    -141.24359645 Ry
     Harris-Foulkes estimate   =    -141.25587444 Ry
     estimated scf accuracy    <       0.01566843 Ry

     iteration #  4     ecut=    75.00 Ry     beta= 0.10
     Davidson diagonalization with overlap
     ethr =  1.31E-04,  avg # of iterations =  1.0

     total cpu time spent up to now is        1.2 secs

     total energy              =    -141.24149695 Ry
     Harris-Foulkes estimate   =    -141.24403249 Ry
     estimated scf accuracy    <       0.01247939 Ry

     iteration #  5     ecut=    75.00 Ry     beta= 0.10
     Davidson diagonalization with overlap
     ethr =  1.04E-04,  avg # of iterations =  1.0

     total cpu time spent up to now is        1.3 secs

     total energy              =    -141.24348303 Ry
     Harris-Foulkes estimate   =    -141.24257967 Ry
     estimated scf accuracy    <       0.00074840 Ry

     iteration #  6     ecut=    75.00 Ry     beta= 0.10
     Davidson diagonalization with overlap
     ethr =  6.24E-06,  avg # of iterations =  2.8

     total cpu time spent up to now is        1.4 secs

     total energy              =    -141.24374418 Ry
     Harris-Foulkes estimate   =    -141.24374610 Ry
     estimated scf accuracy    <       0.00010109 Ry

     iteration #  7     ecut=    75.00 Ry     beta= 0.10
     Davidson diagonalization with overlap
     ethr =  8.42E-07,  avg # of iterations =  1.1

     total cpu time spent up to now is        1.5 secs

     total energy              =    -141.24274633 Ry
     Harris-Foulkes estimate   =    -141.24374545 Ry
     estimated scf accuracy    <       0.00008287 Ry

     iteration #  8     ecut=    75.00 Ry     beta= 0.10
     Davidson diagonalization with overlap
     ethr =  6.91E-07,  avg # of iterations =  2.8

     total cpu time spent up to now is        1.6 secs

     total energy              =    -141.24288170 Ry
     Harris-Foulkes estimate   =    -141.24282377 Ry
     estimated scf accuracy    <       0.00001676 Ry

     iteration #  9     ecut=    75.00 Ry     beta= 0.10
     Davidson diagonalization with overlap
     ethr =  1.40E-07,  avg # of iterations =  2.0

     total cpu time spent up to now is        1.7 secs

     total energy              =    -141.24278501 Ry
     Harris-Foulkes estimate   =    -141.24288389 Ry
     estimated scf accuracy    <       0.00000763 Ry

     iteration # 10     ecut=    75.00 Ry     beta= 0.10
     Davidson diagonalization with overlap
     ethr =  6.36E-08,  avg # of iterations =  3.0

     total cpu time spent up to now is        1.9 secs

     End of self-consistent calculation

          k = 0.1250 0.1250 0.1250 (   724 PWs)   bands (ev):

    30.9157  41.4377  41.4557  41.4755  52.4297  52.4500  52.4701  54.9336
    54.9434  54.9534

          k = 0.1250 0.1250 0.3750 (   733 PWs)   bands (ev):

    34.4086  39.0148  43.9429  43.9618  51.8129  51.8302  54.8791  54.8878
    55.6929  61.5174

          k = 0.1250 0.3750 0.3750 (   723 PWs)   bands (ev):

    37.4239  41.6585  41.6955  44.5504  50.4951  52.9076  52.9567  57.0474
    57.5692  60.7356

          k = 0.3750 0.3750 0.3750 (   717 PWs)   bands (ev):

    39.8894  43.9782  44.0157  44.0539  47.7762  47.8177  47.8592  51.6516
    66.9755  66.9765

          k =-0.1250-0.1250 0.1250 (   724 PWs)   bands (ev):

    30.9157  41.4415  41.4559  41.4714  52.4339  52.4499  52.4659  54.9356
    54.9435  54.9514

          k =-0.1250 0.1250-0.1250 (   724 PWs)   bands (ev):

    30.9157  41.4450  41.4567  41.4671  52.4381  52.4499  52.4617  54.9377
    54.9434  54.9493

          k = 0.1250-0.1250-0.1250 (   724 PWs)   bands (ev):

    30.9157  41.4432  41.4562  41.4694  52.4359  52.4500  52.4639  54.9366
    54.9434  54.9504

          k =-0.1250-0.1250 0.3750 (   733 PWs)   bands (ev):

    34.4086  39.0148  43.9429  43.9617  51.8130  51.8302  54.8791  54.8878
    55.6926  61.5176

          k =-0.1250 0.1250-0.3750 (   733 PWs)   bands (ev):

    34.4086  39.0148  43.9480  43.9567  51.8176  51.8255  54.8815  54.8855
    55.6927  61.5175

          k = 0.1250-0.1250-0.3750 (   733 PWs)   bands (ev):

    34.4086  39.0148  43.9481  43.9567  51.8176  51.8255  54.8815  54.8855
    55.6929  61.5175

          k = 0.3750-0.1250 0.1250 (   733 PWs)   bands (ev):

    34.4087  39.0147  43.9480  43.9568  51.8174  51.8254  54.8816  54.8857
    55.6929  61.5175

          k =-0.3750-0.1250-0.1250 (   733 PWs)   bands (ev):

    34.4087  39.0146  43.9444  43.9604  51.8143  51.8290  54.8794  54.8868
    55.6935  61.5176

          k = 0.3750 0.1250-0.1250 (   733 PWs)   bands (ev):

    34.4087  39.0146  43.9480  43.9568  51.8173  51.8254  54.8816  54.8857
    55.6929  61.5178

          k =-0.3750 0.1250 0.1250 (   733 PWs)   bands (ev):

    34.4086  39.0147  43.9443  43.9604  51.8144  51.8290  54.8795  54.8869
    55.6931  61.5176

          k =-0.1250 0.3750 0.1250 (   733 PWs)   bands (ev):

    34.4086  39.0146  43.9513  43.9537  51.8205  51.8227  54.8828  54.8839
    55.6928  61.5175

          k =-0.1250-0.3750-0.1250 (   733 PWs)   bands (ev):

    34.4086  39.0146  43.9478  43.9573  51.8172  51.8258  54.8813  54.8856
    55.6929  61.5177

          k = 0.1250 0.3750-0.1250 (   733 PWs)   bands (ev):

    34.4086  39.0146  43.9513  43.9538  51.8204  51.8226  54.8826  54.8839
    55.6932  61.5175

          k = 0.1250-0.3750 0.1250 (   733 PWs)   bands (ev):

    34.4086  39.0146  43.9478  43.9572  51.8172  51.8258  54.8813  54.8856
    55.6928  61.5176

          k =-0.1250-0.3750 0.3750 (   723 PWs)   bands (ev):

    37.4238  41.6670  41.6871  44.5503  50.4953  52.9187  52.9455  57.0468
    57.5702  60.7353

          k =-0.1250 0.3750-0.3750 (   723 PWs)   bands (ev):

    37.4238  41.6670  41.6872  44.5503  50.4952  52.9186  52.9454  57.0464
    57.5706  60.7354

          k = 0.1250-0.3750-0.3750 (   723 PWs)   bands (ev):

    37.4239  41.6585  41.6955  44.5505  50.4951  52.9076  52.9567  57.0470
    57.5695  60.7346

          k = 0.3750 0.1250-0.3750 (   723 PWs)   bands (ev):

    37.4239  41.6742  41.6798  44.5503  50.4951  52.9285  52.9359  57.0475
    57.5694  60.7377

          k =-0.3750-0.1250-0.3750 (   723 PWs)   bands (ev):

    37.4239  41.6662  41.6879  44.5502  50.4953  52.9178  52.9467  57.0477
    57.5690  60.7356

          k = 0.3750-0.1250 0.3750 (   723 PWs)   bands (ev):

    37.4239  41.6662  41.6879  44.5503  50.4951  52.9177  52.9465  57.0478
    57.5692  60.7352

          k =-0.3750 0.1250 0.3750 (   723 PWs)   bands (ev):

    37.4239  41.6742  41.6798  44.5503  50.4952  52.9286  52.9360  57.0471
    57.5694  60.7368

          k = 0.3750-0.3750 0.1250 (   723 PWs)   bands (ev):

    37.4239  41.6671  41.6869  44.5504  50.4949  52.9188  52.9453  57.0477
    57.5693  60.7371

          k =-0.3750-0.3750-0.1250 (   723 PWs)   bands (ev):

    37.4239  41.6554  41.6987  44.5503  50.4953  52.9032  52.9610  57.0456
    57.5712  60.7328

          k = 0.3750 0.3750-0.1250 (   723 PWs)   bands (ev):

    37.4239  41.6554  41.6987  44.5503  50.4951  52.9031  52.9609  57.0477
    57.5692  60.7323

          k =-0.3750 0.3750 0.1250 (   723 PWs)   bands (ev):

    37.4239  41.6671  41.6869  44.5503  50.4952  52.9189  52.9454  57.0430
    57.5738  60.7369

          k =-0.3750-0.3750 0.3750 (   717 PWs)   bands (ev):

    39.8893  43.9860  44.0159  44.0458  47.7849  47.8176  47.8505  51.6517
    66.9756  66.9769

          k =-0.3750 0.3750-0.3750 (   717 PWs)   bands (ev):

    39.8893  43.9937  44.0161  44.0379  47.7934  47.8177  47.8420  51.6518
    66.9750  66.9779

          k = 0.3750-0.3750-0.3750 (   717 PWs)   bands (ev):

    39.8893  43.9896  44.0158  44.0421  47.7890  47.8177  47.8466  51.6516
    66.9747  66.9773

     the Fermi energy is    52.6617 ev

!    total energy              =    -141.24279496 Ry
     Harris-Foulkes estimate   =    -141.24279538 Ry
     estimated scf accuracy    <       0.00000068 Ry

     total all-electron energy =     -1925.813923 Ry

     The total energy is the sum of the following terms:

     one-electron contribution =      58.67242563 Ry
     hartree contribution      =       0.21196201 Ry
     xc contribution           =     -17.28515473 Ry
     ewald contribution        =     -40.85514764 Ry
     one-center paw contrib.   =    -141.98625953 Ry
     smearing contrib. (-TS)   =      -0.00062070 Ry

     convergence has been achieved in  10 iterations

     Forces acting on atoms (cartesian axes, Ry/au):

     atom    1 type  1   force =     0.00202887   -0.00041468    0.01637745
     atom    2 type  1   force =    -0.00328006    0.00369149    0.01635486
     atom    3 type  1   force =    -0.00057323   -0.00064253   -0.01726942
     atom    4 type  1   force =     0.00182441   -0.00263428   -0.01546289

     Total force =     0.033357     Total SCF correction =     0.000023


     Computing stress (Cartesian axis) and pressure

          total   stress  (Ry/bohr**3)                   (kbar)     P=59672.82
   0.40565311   0.00000098   0.00000088      59673.62      0.14      0.13
   0.00000098   0.40564190  -0.00000095          0.14  59671.97     -0.14
   0.00000088  -0.00000095   0.40564794          0.13     -0.14  59672.86


     Writing output data file fe_scf_fcc_2.save/
 
     init_run     :      0.10s CPU      0.13s WALL (       1 calls)
     electrons    :      1.10s CPU      1.21s WALL (       1 calls)
     forces       :      0.01s CPU      0.01s WALL (       1 calls)
     stress       :      0.01s CPU      0.01s WALL (       1 calls)

     Called by init_run:
     wfcinit      :      0.05s CPU      0.06s WALL (       1 calls)
     potinit      :      0.01s CPU      0.02s WALL (       1 calls)
     hinit0       :      0.03s CPU      0.05s WALL (       1 calls)

     Called by electrons:
     c_bands      :      0.83s CPU      0.91s WALL (      10 calls)
     sum_band     :      0.14s CPU      0.14s WALL (      10 calls)
     v_of_rho     :      0.00s CPU      0.00s WALL (      11 calls)
     newd         :      0.00s CPU      0.00s WALL (      11 calls)
     PAW_pot      :      0.13s CPU      0.15s WALL (      11 calls)
     mix_rho      :      0.00s CPU      0.00s WALL (      10 calls)

     Called by c_bands:
     init_us_2    :      0.01s CPU      0.01s WALL (     736 calls)
     cegterg      :      0.80s CPU      0.88s WALL (     320 calls)

     Called by sum_band:
     sum_band:bec :      0.00s CPU      0.00s WALL (     320 calls)
     addusdens    :      0.00s CPU      0.00s WALL (      10 calls)

     Called by *egterg:
     h_psi        :      0.57s CPU      0.62s WALL (    1040 calls)
     s_psi        :      0.01s CPU      0.01s WALL (    1040 calls)
     g_psi        :      0.00s CPU      0.00s WALL (     688 calls)
     cdiaghg      :      0.17s CPU      0.19s WALL (    1008 calls)

     Called by h_psi:
     h_psi:pot    :      0.56s CPU      0.62s WALL (    1040 calls)
     h_psi:calbec :      0.05s CPU      0.06s WALL (    1040 calls)
     vloc_psi     :      0.50s CPU      0.55s WALL (    1040 calls)
     add_vuspsi   :      0.01s CPU      0.01s WALL (    1040 calls)

     General routines
     calbec       :      0.08s CPU      0.09s WALL (    1520 calls)
     fft          :      0.03s CPU      0.05s WALL (     147 calls)
     ffts         :      0.00s CPU      0.00s WALL (      10 calls)
     fftw         :      0.57s CPU      0.62s WALL (   20682 calls)
 
     Parallel routines
     fft_scatt_xy :      0.03s CPU      0.04s WALL (   20839 calls)
     fft_scatt_yz :      0.47s CPU      0.52s WALL (   20839 calls)
 
     PWSCF        :     1.78s CPU         2.36s WALL

 
   This run was terminated on:  19: 3:53  22Oct2019            

=------------------------------------------------------------------------------=
   JOB DONE.
=------------------------------------------------------------------------------=
