
     Program PWSCF v.6.3 starts on 22Oct2019 at 19: 3:30 

     This program is part of the open-source Quantum ESPRESSO suite
     for quantum simulation of materials; please cite
         "P. Giannozzi et al., J. Phys.:Condens. Matter 21 395502 (2009);
         "P. Giannozzi et al., J. Phys.:Condens. Matter 29 465901 (2017);
          URL http://www.quantum-espresso.org", 
     in publications or presentations arising from this work. More details at
     http://www.quantum-espresso.org/quote

     Parallel version (MPI & OpenMP), running on      20 processor cores
     Number of MPI processes:                20
     Threads/MPI process:                     1

     MPI processes distributed on     1 nodes
     R & G space division:  proc/nbgrp/npool/nimage =      20
     Reading input from /rds/homes/b/bxp912/jobs/20191022_test/wd/runpwscf/file_10074.in
Warning: card &IONS ignored
Warning: card ION_DYNAMICS = 'BFGS', ignored
Warning: card / ignored
Warning: card &CELL ignored
Warning: card CELL_DYNAMICS = 'BFGS', ignored
Warning: card CELL_FACTOR = 2.0, ignored
Warning: card PRESS = 0.0, ignored
Warning: card / ignored

     Current dimensions of program PWSCF are:
     Max number of different atomic species (ntypx) = 10
     Max number of k-points (npk) =  40000
     Max angular momentum in pseudopotentials (lmaxx) =  3
     Message from routine read_upf::
     Pseudo file /rds/homes/b/bxp912/pp/Al.pbe-nl-kjpaw_psl.1.0.0.UPF has been successfully fixed on the fly.
To avoid this message in the future you can permanently fix 
 your pseudo files following instructions given in: 
https://gitlab.com/QEF/q-e/blob/master/upftools/how_to_fix_upf.md
               file Al.pbe-nl-kjpaw_psl.1.0.0.UPF: wavefunction(s)  3S 3P renormalized

     Subspace diagonalization in iterative solution of the eigenvalue problem:
     a serial algorithm will be used

 
     Parallelization info
     --------------------
     sticks:   dense  smooth     PW     G-vecs:    dense   smooth      PW
     Min           7       7      3                   69       69      21
     Max           8       8      4                   74       74      26
     Sum         149     149     69                 1419     1419     461
 


     bravais-lattice index     =            0
     lattice parameter (alat)  =       4.0400  a.u.
     unit-cell volume          =      65.9393 (a.u.)^3
     number of atoms/cell      =            4
     number of atomic types    =            1
     number of electrons       =        12.00
     number of Kohn-Sham states=           10
     kinetic-energy cutoff     =      40.0000  Ry
     charge density cutoff     =     120.0000  Ry
     convergence threshold     =      1.0E-06
     mixing beta               =       0.1000
     number of iterations used =           10  TF        mixing
     Exchange-correlation      = SLA PW PBX PBC ( 1  4  3  4 0 0)

     celldm(1)=   4.040000  celldm(2)=   0.000000  celldm(3)=   0.000000
     celldm(4)=   0.000000  celldm(5)=   0.000000  celldm(6)=   0.000000

     crystal axes: (cart. coord. in units of alat)
               a(1) = (   1.000000   0.000000   0.000000 )  
               a(2) = (   0.000000   1.000000   0.000000 )  
               a(3) = (   0.000000   0.000000   1.000000 )  

     reciprocal axes: (cart. coord. in units 2 pi/alat)
               b(1) = (  1.000000  0.000000  0.000000 )  
               b(2) = (  0.000000  1.000000  0.000000 )  
               b(3) = (  0.000000  0.000000  1.000000 )  


     PseudoPot. # 1 for Al read from file:
     /rds/homes/b/bxp912/pp/Al.pbe-nl-kjpaw_psl.1.0.0.UPF
     MD5 check sum: 339dbea23cf3ab9a065ad45c0f9085d7
     Pseudo is Projector augmented-wave + core cor, Zval =  3.0
     Generated using "atomic" code by A. Dal Corso v.5.1
     Shape of augmentation charge: PSQ
     Using radial grid of 1135 points,  4 beta functions with: 
                l(1) =   0
                l(2) =   0
                l(3) =   1
                l(4) =   1
     Q(r) pseudized with 0 coefficients 


     atomic species   valence    mass     pseudopotential
        Al             3.00    26.98200     Al( 1.00)

     No symmetry found



   Cartesian axes

     site n.     atom                  positions (alat units)
         1           Al  tau(   1) = (  -0.0001235   0.0000359   0.0002572  )
         2           Al  tau(   2) = (   0.5003009   0.4992819   0.0002658  )
         3           Al  tau(   3) = (   0.4996490   0.0001153   0.5011170  )
         4           Al  tau(   4) = (  -0.0000756   0.5008267   0.5006943  )

     number of k points=    32  Marzari-Vanderbilt smearing, width (Ry)=  0.0200
                       cart. coord. in units 2pi/alat
        k(    1) = (   0.1250000   0.1250000   0.1250000), wk =   0.0625000
        k(    2) = (   0.1250000   0.1250000   0.3750000), wk =   0.0625000
        k(    3) = (   0.1250000   0.3750000   0.3750000), wk =   0.0625000
        k(    4) = (   0.3750000   0.3750000   0.3750000), wk =   0.0625000
        k(    5) = (  -0.1250000  -0.1250000   0.1250000), wk =   0.0625000
        k(    6) = (  -0.1250000   0.1250000  -0.1250000), wk =   0.0625000
        k(    7) = (   0.1250000  -0.1250000  -0.1250000), wk =   0.0625000
        k(    8) = (  -0.1250000  -0.1250000   0.3750000), wk =   0.0625000
        k(    9) = (  -0.1250000   0.1250000  -0.3750000), wk =   0.0625000
        k(   10) = (   0.1250000  -0.1250000  -0.3750000), wk =   0.0625000
        k(   11) = (   0.3750000  -0.1250000   0.1250000), wk =   0.0625000
        k(   12) = (  -0.3750000  -0.1250000  -0.1250000), wk =   0.0625000
        k(   13) = (   0.3750000   0.1250000  -0.1250000), wk =   0.0625000
        k(   14) = (  -0.3750000   0.1250000   0.1250000), wk =   0.0625000
        k(   15) = (  -0.1250000   0.3750000   0.1250000), wk =   0.0625000
        k(   16) = (  -0.1250000  -0.3750000  -0.1250000), wk =   0.0625000
        k(   17) = (   0.1250000   0.3750000  -0.1250000), wk =   0.0625000
        k(   18) = (   0.1250000  -0.3750000   0.1250000), wk =   0.0625000
        k(   19) = (  -0.1250000  -0.3750000   0.3750000), wk =   0.0625000
        k(   20) = (  -0.1250000   0.3750000  -0.3750000), wk =   0.0625000
        k(   21) = (   0.1250000  -0.3750000  -0.3750000), wk =   0.0625000
        k(   22) = (   0.3750000   0.1250000  -0.3750000), wk =   0.0625000
        k(   23) = (  -0.3750000  -0.1250000  -0.3750000), wk =   0.0625000
        k(   24) = (   0.3750000  -0.1250000   0.3750000), wk =   0.0625000
        k(   25) = (  -0.3750000   0.1250000   0.3750000), wk =   0.0625000
        k(   26) = (   0.3750000  -0.3750000   0.1250000), wk =   0.0625000
        k(   27) = (  -0.3750000  -0.3750000  -0.1250000), wk =   0.0625000
        k(   28) = (   0.3750000   0.3750000  -0.1250000), wk =   0.0625000
        k(   29) = (  -0.3750000   0.3750000   0.1250000), wk =   0.0625000
        k(   30) = (  -0.3750000  -0.3750000   0.3750000), wk =   0.0625000
        k(   31) = (  -0.3750000   0.3750000  -0.3750000), wk =   0.0625000
        k(   32) = (   0.3750000  -0.3750000  -0.3750000), wk =   0.0625000

     Dense  grid:     1419 G-vectors     FFT dimensions: (  15,  15,  15)

     Estimated max dynamical RAM per process >       0.39 MB

     Estimated total dynamical RAM >       7.85 MB

     Initial potential from superposition of free atoms

     starting charge   11.99084, renormalised to   12.00000
     Starting wfcs are   16 randomized atomic wfcs
     Checking if some PAW data can be deallocated... 

     total cpu time spent up to now is        0.6 secs

     Self-consistent Calculation

     iteration #  1     ecut=    40.00 Ry     beta= 0.10
     Davidson diagonalization with overlap
     ethr =  1.00E-02,  avg # of iterations =  4.8

     total cpu time spent up to now is        0.8 secs

     total energy              =    -141.64981102 Ry
     Harris-Foulkes estimate   =    -141.80432937 Ry
     estimated scf accuracy    <       0.18126785 Ry

     iteration #  2     ecut=    40.00 Ry     beta= 0.10
     Davidson diagonalization with overlap
     ethr =  1.51E-03,  avg # of iterations =  1.0

     total cpu time spent up to now is        0.9 secs

     total energy              =    -141.15930057 Ry
     Harris-Foulkes estimate   =    -141.65330300 Ry
     estimated scf accuracy    <       0.15201250 Ry

     iteration #  3     ecut=    40.00 Ry     beta= 0.10
     Davidson diagonalization with overlap
     ethr =  1.27E-03,  avg # of iterations =  2.0

     total cpu time spent up to now is        1.0 secs

     total energy              =    -141.23633246 Ry
     Harris-Foulkes estimate   =    -141.24610135 Ry
     estimated scf accuracy    <       0.01477499 Ry

     iteration #  4     ecut=    40.00 Ry     beta= 0.10
     Davidson diagonalization with overlap
     ethr =  1.23E-04,  avg # of iterations =  1.0

     total cpu time spent up to now is        1.1 secs

     total energy              =    -141.23960028 Ry
     Harris-Foulkes estimate   =    -141.23687808 Ry
     estimated scf accuracy    <       0.01142395 Ry

     iteration #  5     ecut=    40.00 Ry     beta= 0.10
     Davidson diagonalization with overlap
     ethr =  9.52E-05,  avg # of iterations =  1.9

     total cpu time spent up to now is        1.2 secs

     total energy              =    -141.24154450 Ry
     Harris-Foulkes estimate   =    -141.24078313 Ry
     estimated scf accuracy    <       0.00049932 Ry

     iteration #  6     ecut=    40.00 Ry     beta= 0.10
     Davidson diagonalization with overlap
     ethr =  4.16E-06,  avg # of iterations =  2.8

     total cpu time spent up to now is        1.3 secs

     total energy              =    -141.24167633 Ry
     Harris-Foulkes estimate   =    -141.24168927 Ry
     estimated scf accuracy    <       0.00011289 Ry

     iteration #  7     ecut=    40.00 Ry     beta= 0.10
     Davidson diagonalization with overlap
     ethr =  9.41E-07,  avg # of iterations =  1.0

     total cpu time spent up to now is        1.4 secs

     total energy              =    -141.24099267 Ry
     Harris-Foulkes estimate   =    -141.24167869 Ry
     estimated scf accuracy    <       0.00009532 Ry

     iteration #  8     ecut=    40.00 Ry     beta= 0.10
     Davidson diagonalization with overlap
     ethr =  7.94E-07,  avg # of iterations =  2.0

     total cpu time spent up to now is        1.5 secs

     total energy              =    -141.24092699 Ry
     Harris-Foulkes estimate   =    -141.24102760 Ry
     estimated scf accuracy    <       0.00000538 Ry

     iteration #  9     ecut=    40.00 Ry     beta= 0.10
     Davidson diagonalization with overlap
     ethr =  4.48E-08,  avg # of iterations =  2.8

     total cpu time spent up to now is        1.6 secs

     total energy              =    -141.24088449 Ry
     Harris-Foulkes estimate   =    -141.24093025 Ry
     estimated scf accuracy    <       0.00001388 Ry

     iteration # 10     ecut=    40.00 Ry     beta= 0.10
     Davidson diagonalization with overlap
     ethr =  4.48E-08,  avg # of iterations =  2.4

     total cpu time spent up to now is        1.7 secs

     total energy              =    -141.24089106 Ry
     Harris-Foulkes estimate   =    -141.24088895 Ry
     estimated scf accuracy    <       0.00000563 Ry

     iteration # 11     ecut=    40.00 Ry     beta= 0.10
     Davidson diagonalization with overlap
     ethr =  4.48E-08,  avg # of iterations =  1.0

     total cpu time spent up to now is        1.8 secs

     total energy              =    -141.24088776 Ry
     Harris-Foulkes estimate   =    -141.24089126 Ry
     estimated scf accuracy    <       0.00000212 Ry

     iteration # 12     ecut=    40.00 Ry     beta= 0.10
     Davidson diagonalization with overlap
     ethr =  1.76E-08,  avg # of iterations =  2.0

     total cpu time spent up to now is        1.9 secs

     End of self-consistent calculation

          k = 0.1250 0.1250 0.1250 (   275 PWs)   bands (ev):

    30.9148  41.4408  41.4588  41.4786  52.4352  52.4555  52.4756  54.9328
    54.9427  54.9528

          k = 0.1250 0.1250 0.3750 (   280 PWs)   bands (ev):

    34.4075  39.0144  43.9448  43.9636  51.8145  51.8317  54.8808  54.8895
    55.6995  61.5203

          k = 0.1250 0.3750 0.3750 (   278 PWs)   bands (ev):

    37.4227  41.6580  41.6948  44.5507  50.4970  52.9096  52.9588  57.0503
    57.5715  60.7412

          k = 0.3750 0.3750 0.3750 (   289 PWs)   bands (ev):

    39.8884  43.9779  44.0155  44.0536  47.7776  47.8191  47.8606  51.6528
    66.9829  66.9885

          k =-0.1250-0.1250 0.1250 (   275 PWs)   bands (ev):

    30.9148  41.4446  41.4590  41.4745  52.4394  52.4554  52.4713  54.9349
    54.9427  54.9507

          k =-0.1250 0.1250-0.1250 (   275 PWs)   bands (ev):

    30.9148  41.4481  41.4598  41.4703  52.4435  52.4554  52.4671  54.9370
    54.9428  54.9486

          k = 0.1250-0.1250-0.1250 (   275 PWs)   bands (ev):

    30.9148  41.4463  41.4593  41.4726  52.4414  52.4555  52.4694  54.9359
    54.9427  54.9497

          k =-0.1250-0.1250 0.3750 (   280 PWs)   bands (ev):

    34.4075  39.0144  43.9448  43.9636  51.8145  51.8318  54.8808  54.8895
    55.6992  61.5205

          k =-0.1250 0.1250-0.3750 (   280 PWs)   bands (ev):

    34.4075  39.0144  43.9499  43.9585  51.8192  51.8271  54.8832  54.8872
    55.6993  61.5203

          k = 0.1250-0.1250-0.3750 (   280 PWs)   bands (ev):

    34.4075  39.0143  43.9499  43.9585  51.8191  51.8270  54.8832  54.8871
    55.6995  61.5199

          k = 0.3750-0.1250 0.1250 (   280 PWs)   bands (ev):

    34.4075  39.0143  43.9499  43.9586  51.8189  51.8270  54.8833  54.8874
    55.6995  61.5205

          k =-0.3750-0.1250-0.1250 (   280 PWs)   bands (ev):

    34.4075  39.0142  43.9462  43.9622  51.8159  51.8306  54.8811  54.8885
    55.7001  61.5204

          k = 0.3750 0.1250-0.1250 (   280 PWs)   bands (ev):

    34.4075  39.0142  43.9499  43.9586  51.8189  51.8269  54.8833  54.8874
    55.6995  61.5206

          k =-0.3750 0.1250 0.1250 (   280 PWs)   bands (ev):

    34.4075  39.0143  43.9462  43.9622  51.8159  51.8306  54.8812  54.8886
    55.6997  61.5205

          k =-0.1250 0.3750 0.1250 (   280 PWs)   bands (ev):

    34.4075  39.0142  43.9532  43.9556  51.8220  51.8243  54.8845  54.8856
    55.6994  61.5205

          k =-0.1250-0.3750-0.1250 (   280 PWs)   bands (ev):

    34.4075  39.0142  43.9497  43.9591  51.8187  51.8274  54.8830  54.8873
    55.6995  61.5205

          k = 0.1250 0.3750-0.1250 (   280 PWs)   bands (ev):

    34.4075  39.0142  43.9532  43.9556  51.8220  51.8242  54.8844  54.8856
    55.6997  61.5204

          k = 0.1250-0.3750 0.1250 (   280 PWs)   bands (ev):

    34.4075  39.0142  43.9497  43.9590  51.8188  51.8274  54.8830  54.8873
    55.6993  61.5205

          k =-0.1250-0.3750 0.3750 (   278 PWs)   bands (ev):

    37.4226  41.6664  41.6865  44.5506  50.4972  52.9207  52.9476  57.0496
    57.5724  60.7423

          k =-0.1250 0.3750-0.3750 (   278 PWs)   bands (ev):

    37.4226  41.6664  41.6865  44.5506  50.4971  52.9207  52.9475  57.0492
    57.5729  60.7411

          k = 0.1250-0.3750-0.3750 (   278 PWs)   bands (ev):

    37.4227  41.6580  41.6948  44.5508  50.4970  52.9096  52.9588  57.0499
    57.5717  60.7390

          k = 0.3750 0.1250-0.3750 (   278 PWs)   bands (ev):

    37.4227  41.6736  41.6792  44.5506  50.4970  52.9306  52.9380  57.0503
    57.5717  60.7446

          k =-0.3750-0.1250-0.3750 (   278 PWs)   bands (ev):

    37.4227  41.6656  41.6872  44.5505  50.4973  52.9199  52.9488  57.0505
    57.5713  60.7421

          k = 0.3750-0.1250 0.3750 (   278 PWs)   bands (ev):

    37.4227  41.6656  41.6872  44.5505  50.4971  52.9198  52.9487  57.0507
    57.5714  60.7423

          k =-0.3750 0.1250 0.3750 (   278 PWs)   bands (ev):

    37.4227  41.6736  41.6792  44.5506  50.4971  52.9307  52.9381  57.0499
    57.5717  60.7445

          k = 0.3750-0.3750 0.1250 (   278 PWs)   bands (ev):

    37.4227  41.6664  41.6863  44.5507  50.4968  52.9209  52.9474  57.0505
    57.5715  60.7440

          k =-0.3750-0.3750-0.1250 (   278 PWs)   bands (ev):

    37.4227  41.6547  41.6981  44.5505  50.4972  52.9053  52.9631  57.0485
    57.5734  60.7396

          k = 0.3750 0.3750-0.1250 (   278 PWs)   bands (ev):

    37.4227  41.6547  41.6981  44.5506  50.4970  52.9052  52.9630  57.0506
    57.5714  60.7385

          k =-0.3750 0.3750 0.1250 (   278 PWs)   bands (ev):

    37.4227  41.6664  41.6863  44.5506  50.4972  52.9210  52.9475  57.0459
    57.5760  60.7425

          k =-0.3750-0.3750 0.3750 (   289 PWs)   bands (ev):

    39.8884  43.9858  44.0156  44.0456  47.7863  47.8190  47.8519  51.6529
    66.9831  66.9864

          k =-0.3750 0.3750-0.3750 (   289 PWs)   bands (ev):

    39.8883  43.9934  44.0158  44.0377  47.7948  47.8191  47.8433  51.6530
    66.9842  66.9867

          k = 0.3750-0.3750-0.3750 (   289 PWs)   bands (ev):

    39.8883  43.9894  44.0156  44.0419  47.7904  47.8191  47.8480  51.6529
    66.9844  66.9875

     the Fermi energy is    52.6662 ev

!    total energy              =    -141.24088806 Ry
     Harris-Foulkes estimate   =    -141.24088831 Ry
     estimated scf accuracy    <       0.00000013 Ry

     total all-electron energy =     -1925.812016 Ry

     The total energy is the sum of the following terms:

     one-electron contribution =      58.67554944 Ry
     hartree contribution      =       0.21191316 Ry
     xc contribution           =     -17.28525758 Ry
     ewald contribution        =     -40.85514764 Ry
     one-center paw contrib.   =    -141.98727060 Ry
     smearing contrib. (-TS)   =      -0.00067484 Ry

     convergence has been achieved in  12 iterations

     Forces acting on atoms (cartesian axes, Ry/au):

     atom    1 type  1   force =     0.00199679   -0.00038772    0.01646294
     atom    2 type  1   force =    -0.00319511    0.00364089    0.01643672
     atom    3 type  1   force =    -0.00058821   -0.00070712   -0.01729850
     atom    4 type  1   force =     0.00178653   -0.00254605   -0.01560116

     Total force =     0.033496     Total SCF correction =     0.000010


     Computing stress (Cartesian axis) and pressure

          total   stress  (Ry/bohr**3)                   (kbar)     P=59657.37
   0.40554810   0.00000118   0.00000094      59658.17      0.17      0.14
   0.00000118   0.40553676  -0.00000124          0.17  59656.51     -0.18
   0.00000094  -0.00000124   0.40554308          0.14     -0.18  59657.44


     Writing output data file fe_scf_fcc_2.save/
 
     init_run     :      0.11s CPU      0.13s WALL (       1 calls)
     electrons    :      1.16s CPU      1.29s WALL (       1 calls)
     forces       :      0.01s CPU      0.01s WALL (       1 calls)
     stress       :      0.01s CPU      0.01s WALL (       1 calls)

     Called by init_run:
     wfcinit      :      0.04s CPU      0.04s WALL (       1 calls)
     potinit      :      0.01s CPU      0.02s WALL (       1 calls)
     hinit0       :      0.05s CPU      0.06s WALL (       1 calls)

     Called by electrons:
     c_bands      :      0.88s CPU      0.97s WALL (      12 calls)
     sum_band     :      0.13s CPU      0.15s WALL (      12 calls)
     v_of_rho     :      0.00s CPU      0.01s WALL (      13 calls)
     newd         :      0.00s CPU      0.00s WALL (      13 calls)
     PAW_pot      :      0.15s CPU      0.17s WALL (      13 calls)
     mix_rho      :      0.00s CPU      0.00s WALL (      12 calls)

     Called by c_bands:
     init_us_2    :      0.01s CPU      0.01s WALL (     864 calls)
     cegterg      :      0.86s CPU      0.94s WALL (     384 calls)

     Called by sum_band:
     sum_band:bec :      0.00s CPU      0.00s WALL (     384 calls)
     addusdens    :      0.00s CPU      0.00s WALL (      12 calls)

     Called by *egterg:
     h_psi        :      0.58s CPU      0.64s WALL (    1205 calls)
     s_psi        :      0.01s CPU      0.01s WALL (    1205 calls)
     g_psi        :      0.00s CPU      0.00s WALL (     789 calls)
     cdiaghg      :      0.20s CPU      0.22s WALL (    1173 calls)

     Called by h_psi:
     h_psi:pot    :      0.58s CPU      0.64s WALL (    1205 calls)
     h_psi:calbec :      0.06s CPU      0.07s WALL (    1205 calls)
     vloc_psi     :      0.50s CPU      0.55s WALL (    1205 calls)
     add_vuspsi   :      0.01s CPU      0.01s WALL (    1205 calls)

     General routines
     calbec       :      0.08s CPU      0.10s WALL (    1749 calls)
     fft          :      0.05s CPU      0.06s WALL (     169 calls)
     ffts         :      0.00s CPU      0.00s WALL (      12 calls)
     fftw         :      0.56s CPU      0.62s WALL (   24112 calls)
 
     Parallel routines
     fft_scatt_xy :      0.03s CPU      0.04s WALL (   24293 calls)
     fft_scatt_yz :      0.48s CPU      0.53s WALL (   24293 calls)
 
     PWSCF        :     1.80s CPU         2.19s WALL

 
   This run was terminated on:  19: 3:33  22Oct2019            

=------------------------------------------------------------------------------=
   JOB DONE.
=------------------------------------------------------------------------------=
