
     Program PWSCF v.6.3 starts on 22Oct2019 at 19:10:10 

     This program is part of the open-source Quantum ESPRESSO suite
     for quantum simulation of materials; please cite
         "P. Giannozzi et al., J. Phys.:Condens. Matter 21 395502 (2009);
         "P. Giannozzi et al., J. Phys.:Condens. Matter 29 465901 (2017);
          URL http://www.quantum-espresso.org", 
     in publications or presentations arising from this work. More details at
     http://www.quantum-espresso.org/quote

     Parallel version (MPI & OpenMP), running on      20 processor cores
     Number of MPI processes:                20
     Threads/MPI process:                     1

     MPI processes distributed on     1 nodes
     R & G space division:  proc/nbgrp/npool/nimage =      20
     Reading input from /rds/homes/b/bxp912/jobs/20191022_test/wd/runpwscf/file_10212.in
Warning: card &IONS ignored
Warning: card ION_DYNAMICS = 'BFGS', ignored
Warning: card / ignored
Warning: card &CELL ignored
Warning: card CELL_DYNAMICS = 'BFGS', ignored
Warning: card CELL_FACTOR = 2.0, ignored
Warning: card PRESS = 0.0, ignored
Warning: card / ignored

     Current dimensions of program PWSCF are:
     Max number of different atomic species (ntypx) = 10
     Max number of k-points (npk) =  40000
     Max angular momentum in pseudopotentials (lmaxx) =  3
     Message from routine read_upf::
     Pseudo file /rds/homes/b/bxp912/pp/Al.pbe-nl-kjpaw_psl.1.0.0.UPF has been successfully fixed on the fly.
To avoid this message in the future you can permanently fix 
 your pseudo files following instructions given in: 
https://gitlab.com/QEF/q-e/blob/master/upftools/how_to_fix_upf.md
               file Al.pbe-nl-kjpaw_psl.1.0.0.UPF: wavefunction(s)  3S 3P renormalized

     Subspace diagonalization in iterative solution of the eigenvalue problem:
     a serial algorithm will be used

 
     Parallelization info
     --------------------
     sticks:   dense  smooth     PW     G-vecs:    dense   smooth      PW
     Min          17      17      7                  257      257      64
     Max          18      18      9                  262      262      67
     Sum         357     357    145                 5185     5185    1309
 


     bravais-lattice index     =            0
     lattice parameter (alat)  =       4.0400  a.u.
     unit-cell volume          =      65.9393 (a.u.)^3
     number of atoms/cell      =            4
     number of atomic types    =            1
     number of electrons       =        12.00
     number of Kohn-Sham states=           10
     kinetic-energy cutoff     =      90.0000  Ry
     charge density cutoff     =     280.0000  Ry
     convergence threshold     =      1.0E-06
     mixing beta               =       0.1000
     number of iterations used =           10  TF        mixing
     Exchange-correlation      = SLA PW PBX PBC ( 1  4  3  4 0 0)

     celldm(1)=   4.040000  celldm(2)=   0.000000  celldm(3)=   0.000000
     celldm(4)=   0.000000  celldm(5)=   0.000000  celldm(6)=   0.000000

     crystal axes: (cart. coord. in units of alat)
               a(1) = (   1.000000   0.000000   0.000000 )  
               a(2) = (   0.000000   1.000000   0.000000 )  
               a(3) = (   0.000000   0.000000   1.000000 )  

     reciprocal axes: (cart. coord. in units 2 pi/alat)
               b(1) = (  1.000000  0.000000  0.000000 )  
               b(2) = (  0.000000  1.000000  0.000000 )  
               b(3) = (  0.000000  0.000000  1.000000 )  


     PseudoPot. # 1 for Al read from file:
     /rds/homes/b/bxp912/pp/Al.pbe-nl-kjpaw_psl.1.0.0.UPF
     MD5 check sum: 339dbea23cf3ab9a065ad45c0f9085d7
     Pseudo is Projector augmented-wave + core cor, Zval =  3.0
     Generated using "atomic" code by A. Dal Corso v.5.1
     Shape of augmentation charge: PSQ
     Using radial grid of 1135 points,  4 beta functions with: 
                l(1) =   0
                l(2) =   0
                l(3) =   1
                l(4) =   1
     Q(r) pseudized with 0 coefficients 


     atomic species   valence    mass     pseudopotential
        Al             3.00    26.98200     Al( 1.00)

     No symmetry found



   Cartesian axes

     site n.     atom                  positions (alat units)
         1           Al  tau(   1) = (  -0.0001235   0.0000359   0.0002572  )
         2           Al  tau(   2) = (   0.5003009   0.4992819   0.0002658  )
         3           Al  tau(   3) = (   0.4996490   0.0001153   0.5011170  )
         4           Al  tau(   4) = (  -0.0000756   0.5008267   0.5006943  )

     number of k points=    32  Marzari-Vanderbilt smearing, width (Ry)=  0.0200
                       cart. coord. in units 2pi/alat
        k(    1) = (   0.1250000   0.1250000   0.1250000), wk =   0.0625000
        k(    2) = (   0.1250000   0.1250000   0.3750000), wk =   0.0625000
        k(    3) = (   0.1250000   0.3750000   0.3750000), wk =   0.0625000
        k(    4) = (   0.3750000   0.3750000   0.3750000), wk =   0.0625000
        k(    5) = (  -0.1250000  -0.1250000   0.1250000), wk =   0.0625000
        k(    6) = (  -0.1250000   0.1250000  -0.1250000), wk =   0.0625000
        k(    7) = (   0.1250000  -0.1250000  -0.1250000), wk =   0.0625000
        k(    8) = (  -0.1250000  -0.1250000   0.3750000), wk =   0.0625000
        k(    9) = (  -0.1250000   0.1250000  -0.3750000), wk =   0.0625000
        k(   10) = (   0.1250000  -0.1250000  -0.3750000), wk =   0.0625000
        k(   11) = (   0.3750000  -0.1250000   0.1250000), wk =   0.0625000
        k(   12) = (  -0.3750000  -0.1250000  -0.1250000), wk =   0.0625000
        k(   13) = (   0.3750000   0.1250000  -0.1250000), wk =   0.0625000
        k(   14) = (  -0.3750000   0.1250000   0.1250000), wk =   0.0625000
        k(   15) = (  -0.1250000   0.3750000   0.1250000), wk =   0.0625000
        k(   16) = (  -0.1250000  -0.3750000  -0.1250000), wk =   0.0625000
        k(   17) = (   0.1250000   0.3750000  -0.1250000), wk =   0.0625000
        k(   18) = (   0.1250000  -0.3750000   0.1250000), wk =   0.0625000
        k(   19) = (  -0.1250000  -0.3750000   0.3750000), wk =   0.0625000
        k(   20) = (  -0.1250000   0.3750000  -0.3750000), wk =   0.0625000
        k(   21) = (   0.1250000  -0.3750000  -0.3750000), wk =   0.0625000
        k(   22) = (   0.3750000   0.1250000  -0.3750000), wk =   0.0625000
        k(   23) = (  -0.3750000  -0.1250000  -0.3750000), wk =   0.0625000
        k(   24) = (   0.3750000  -0.1250000   0.3750000), wk =   0.0625000
        k(   25) = (  -0.3750000   0.1250000   0.3750000), wk =   0.0625000
        k(   26) = (   0.3750000  -0.3750000   0.1250000), wk =   0.0625000
        k(   27) = (  -0.3750000  -0.3750000  -0.1250000), wk =   0.0625000
        k(   28) = (   0.3750000   0.3750000  -0.1250000), wk =   0.0625000
        k(   29) = (  -0.3750000   0.3750000   0.1250000), wk =   0.0625000
        k(   30) = (  -0.3750000  -0.3750000   0.3750000), wk =   0.0625000
        k(   31) = (  -0.3750000   0.3750000  -0.3750000), wk =   0.0625000
        k(   32) = (   0.3750000  -0.3750000  -0.3750000), wk =   0.0625000

     Dense  grid:     5185 G-vectors     FFT dimensions: (  24,  24,  24)

     Estimated max dynamical RAM per process >       0.93 MB

     Estimated total dynamical RAM >      18.50 MB

     Initial potential from superposition of free atoms

     starting charge   11.99084, renormalised to   12.00000
     Starting wfcs are   16 randomized atomic wfcs
     Checking if some PAW data can be deallocated... 

     total cpu time spent up to now is        0.7 secs

     Self-consistent Calculation

     iteration #  1     ecut=    90.00 Ry     beta= 0.10
     Davidson diagonalization with overlap
     ethr =  1.00E-02,  avg # of iterations =  4.9

     total cpu time spent up to now is        1.0 secs

     total energy              =    -141.65276022 Ry
     Harris-Foulkes estimate   =    -141.80703669 Ry
     estimated scf accuracy    <       0.18121073 Ry

     iteration #  2     ecut=    90.00 Ry     beta= 0.10
     Davidson diagonalization with overlap
     ethr =  1.51E-03,  avg # of iterations =  1.0

     total cpu time spent up to now is        1.1 secs

     total energy              =    -141.16255275 Ry
     Harris-Foulkes estimate   =    -141.65533614 Ry
     estimated scf accuracy    <       0.15199368 Ry

     iteration #  3     ecut=    90.00 Ry     beta= 0.10
     Davidson diagonalization with overlap
     ethr =  1.27E-03,  avg # of iterations =  2.0

     total cpu time spent up to now is        1.2 secs

     total energy              =    -141.24401701 Ry
     Harris-Foulkes estimate   =    -141.25535980 Ry
     estimated scf accuracy    <       0.01558252 Ry

     iteration #  4     ecut=    90.00 Ry     beta= 0.10
     Davidson diagonalization with overlap
     ethr =  1.30E-04,  avg # of iterations =  1.0

     total cpu time spent up to now is        1.3 secs

     total energy              =    -141.24159024 Ry
     Harris-Foulkes estimate   =    -141.24442372 Ry
     estimated scf accuracy    <       0.01252188 Ry

     iteration #  5     ecut=    90.00 Ry     beta= 0.10
     Davidson diagonalization with overlap
     ethr =  1.04E-04,  avg # of iterations =  1.0

     total cpu time spent up to now is        1.5 secs

     total energy              =    -141.24333984 Ry
     Harris-Foulkes estimate   =    -141.24264854 Ry
     estimated scf accuracy    <       0.00083033 Ry

     iteration #  6     ecut=    90.00 Ry     beta= 0.10
     Davidson diagonalization with overlap
     ethr =  6.92E-06,  avg # of iterations =  2.4

     total cpu time spent up to now is        1.6 secs

     total energy              =    -141.24361318 Ry
     Harris-Foulkes estimate   =    -141.24359938 Ry
     estimated scf accuracy    <       0.00013124 Ry

     iteration #  7     ecut=    90.00 Ry     beta= 0.10
     Davidson diagonalization with overlap
     ethr =  1.09E-06,  avg # of iterations =  1.2

     total cpu time spent up to now is        1.7 secs

     total energy              =    -141.24280019 Ry
     Harris-Foulkes estimate   =    -141.24361540 Ry
     estimated scf accuracy    <       0.00011342 Ry

     iteration #  8     ecut=    90.00 Ry     beta= 0.10
     Davidson diagonalization with overlap
     ethr =  9.45E-07,  avg # of iterations =  2.1

     total cpu time spent up to now is        1.9 secs

     total energy              =    -141.24296676 Ry
     Harris-Foulkes estimate   =    -141.24286902 Ry
     estimated scf accuracy    <       0.00006234 Ry

     iteration #  9     ecut=    90.00 Ry     beta= 0.10
     Davidson diagonalization with overlap
     ethr =  5.20E-07,  avg # of iterations =  2.0

     total cpu time spent up to now is        2.0 secs

     total energy              =    -141.24282917 Ry
     Harris-Foulkes estimate   =    -141.24297356 Ry
     estimated scf accuracy    <       0.00000934 Ry

     iteration # 10     ecut=    90.00 Ry     beta= 0.10
     Davidson diagonalization with overlap
     ethr =  7.79E-08,  avg # of iterations =  3.0

     total cpu time spent up to now is        2.1 secs

     total energy              =    -141.24284091 Ry
     Harris-Foulkes estimate   =    -141.24284134 Ry
     estimated scf accuracy    <       0.00000302 Ry

     iteration # 11     ecut=    90.00 Ry     beta= 0.10
     Davidson diagonalization with overlap
     ethr =  2.52E-08,  avg # of iterations =  1.0

     total cpu time spent up to now is        2.2 secs

     total energy              =    -141.24283942 Ry
     Harris-Foulkes estimate   =    -141.24284096 Ry
     estimated scf accuracy    <       0.00000102 Ry

     iteration # 12     ecut=    90.00 Ry     beta= 0.10
     Davidson diagonalization with overlap
     ethr =  8.51E-09,  avg # of iterations =  2.0

     total cpu time spent up to now is        2.4 secs

     End of self-consistent calculation

          k = 0.1250 0.1250 0.1250 (   952 PWs)   bands (ev):

    30.9156  41.4375  41.4566  41.4753  52.4293  52.4495  52.4697  54.9330
    54.9429  54.9528

          k = 0.1250 0.1250 0.3750 (   950 PWs)   bands (ev):

    34.4085  39.0146  43.9430  43.9619  51.8125  51.8297  54.8786  54.8873
    55.6925  61.5171

          k = 0.1250 0.3750 0.3750 (   953 PWs)   bands (ev):

    37.4237  41.6583  41.6953  44.5503  50.4947  52.9072  52.9564  57.0470
    57.5688  60.7340

          k = 0.3750 0.3750 0.3750 (   958 PWs)   bands (ev):

    39.8891  43.9777  44.0157  44.0535  47.7759  47.8174  47.8589  51.6513
    66.9726  66.9768

          k =-0.1250-0.1250 0.1250 (   952 PWs)   bands (ev):

    30.9156  41.4415  41.4565  41.4714  52.4335  52.4495  52.4654  54.9351
    54.9429  54.9508

          k =-0.1250 0.1250-0.1250 (   952 PWs)   bands (ev):

    30.9156  41.4453  41.4565  41.4675  52.4376  52.4495  52.4612  54.9371
    54.9429  54.9487

          k = 0.1250-0.1250-0.1250 (   952 PWs)   bands (ev):

    30.9156  41.4433  41.4566  41.4695  52.4355  52.4496  52.4635  54.9360
    54.9429  54.9498

          k =-0.1250-0.1250 0.3750 (   950 PWs)   bands (ev):

    34.4085  39.0147  43.9430  43.9618  51.8125  51.8298  54.8787  54.8873
    55.6922  61.5173

          k =-0.1250 0.1250-0.3750 (   950 PWs)   bands (ev):

    34.4085  39.0147  43.9481  43.9568  51.8171  51.8250  54.8810  54.8850
    55.6923  61.5173

          k = 0.1250-0.1250-0.3750 (   950 PWs)   bands (ev):

    34.4085  39.0146  43.9482  43.9568  51.8171  51.8250  54.8810  54.8849
    55.6925  61.5169

          k = 0.3750-0.1250 0.1250 (   950 PWs)   bands (ev):

    34.4085  39.0145  43.9481  43.9569  51.8169  51.8249  54.8811  54.8852
    55.6925  61.5173

          k =-0.3750-0.1250-0.1250 (   950 PWs)   bands (ev):

    34.4085  39.0145  43.9445  43.9605  51.8138  51.8285  54.8789  54.8863
    55.6931  61.5173

          k = 0.3750 0.1250-0.1250 (   950 PWs)   bands (ev):

    34.4085  39.0145  43.9481  43.9569  51.8169  51.8249  54.8811  54.8852
    55.6925  61.5174

          k =-0.3750 0.1250 0.1250 (   950 PWs)   bands (ev):

    34.4085  39.0146  43.9444  43.9605  51.8139  51.8286  54.8790  54.8864
    55.6927  61.5173

          k =-0.1250 0.3750 0.1250 (   950 PWs)   bands (ev):

    34.4085  39.0145  43.9514  43.9538  51.8200  51.8222  54.8823  54.8834
    55.6924  61.5173

          k =-0.1250-0.3750-0.1250 (   950 PWs)   bands (ev):

    34.4085  39.0144  43.9479  43.9574  51.8167  51.8253  54.8808  54.8851
    55.6925  61.5173

          k = 0.1250 0.3750-0.1250 (   950 PWs)   bands (ev):

    34.4085  39.0145  43.9514  43.9538  51.8200  51.8222  54.8822  54.8834
    55.6928  61.5172

          k = 0.1250-0.3750 0.1250 (   950 PWs)   bands (ev):

    34.4085  39.0145  43.9479  43.9573  51.8167  51.8254  54.8808  54.8851
    55.6924  61.5173

          k =-0.1250-0.3750 0.3750 (   953 PWs)   bands (ev):

    37.4236  41.6668  41.6869  44.5502  50.4949  52.9183  52.9451  57.0464
    57.5698  60.7365

          k =-0.1250 0.3750-0.3750 (   953 PWs)   bands (ev):

    37.4236  41.6668  41.6870  44.5502  50.4949  52.9183  52.9451  57.0460
    57.5703  60.7355

          k = 0.1250-0.3750-0.3750 (   953 PWs)   bands (ev):

    37.4237  41.6583  41.6953  44.5503  50.4947  52.9072  52.9564  57.0466
    57.5691  60.7357

          k = 0.3750 0.1250-0.3750 (   953 PWs)   bands (ev):

    37.4237  41.6740  41.6796  44.5502  50.4947  52.9282  52.9356  57.0471
    57.5691  60.7366

          k =-0.3750-0.1250-0.3750 (   953 PWs)   bands (ev):

    37.4237  41.6660  41.6877  44.5501  50.4950  52.9175  52.9463  57.0473
    57.5686  60.7354

          k = 0.3750-0.1250 0.3750 (   953 PWs)   bands (ev):

    37.4236  41.6660  41.6877  44.5501  50.4948  52.9174  52.9462  57.0474
    57.5688  60.7343

          k =-0.3750 0.1250 0.3750 (   953 PWs)   bands (ev):

    37.4236  41.6740  41.6796  44.5502  50.4949  52.9282  52.9356  57.0467
    57.5691  60.7369

          k = 0.3750-0.3750 0.1250 (   953 PWs)   bands (ev):

    37.4237  41.6669  41.6867  44.5502  50.4945  52.9185  52.9449  57.0473
    57.5689  60.7365

          k =-0.3750-0.3750-0.1250 (   953 PWs)   bands (ev):

    37.4237  41.6551  41.6985  44.5501  50.4949  52.9029  52.9606  57.0452
    57.5708  60.7364

          k = 0.3750 0.3750-0.1250 (   953 PWs)   bands (ev):

    37.4237  41.6552  41.6985  44.5502  50.4948  52.9028  52.9605  57.0473
    57.5688  60.7315

          k =-0.3750 0.3750 0.1250 (   953 PWs)   bands (ev):

    37.4237  41.6669  41.6867  44.5502  50.4949  52.9186  52.9451  57.0427
    57.5733  60.7365

          k =-0.3750-0.3750 0.3750 (   958 PWs)   bands (ev):

    39.8891  43.9857  44.0158  44.0455  47.7846  47.8173  47.8502  51.6514
    66.9748  66.9776

          k =-0.3750 0.3750-0.3750 (   958 PWs)   bands (ev):

    39.8890  43.9934  44.0157  44.0377  47.7931  47.8174  47.8417  51.6515
    66.9739  66.9767

          k = 0.3750-0.3750-0.3750 (   958 PWs)   bands (ev):

    39.8890  43.9893  44.0156  44.0419  47.7887  47.8174  47.8463  51.6513
    66.9751  66.9778

     the Fermi energy is    52.6613 ev

!    total energy              =    -141.24283947 Ry
     Harris-Foulkes estimate   =    -141.24283962 Ry
     estimated scf accuracy    <       0.00000052 Ry

     total all-electron energy =     -1925.813967 Ry

     The total energy is the sum of the following terms:

     one-electron contribution =      58.67253672 Ry
     hartree contribution      =       0.21192923 Ry
     xc contribution           =     -17.28518045 Ry
     ewald contribution        =     -40.85514762 Ry
     one-center paw contrib.   =    -141.98635754 Ry
     smearing contrib. (-TS)   =      -0.00061981 Ry

     convergence has been achieved in  12 iterations

     Forces acting on atoms (cartesian axes, Ry/au):

     atom    1 type  1   force =     0.00201782   -0.00039320    0.01643407
     atom    2 type  1   force =    -0.00325262    0.00371278    0.01640230
     atom    3 type  1   force =    -0.00055973   -0.00068723   -0.01729948
     atom    4 type  1   force =     0.00179453   -0.00263235   -0.01553690

     Total force =     0.033456     Total SCF correction =     0.000006


     Computing stress (Cartesian axis) and pressure

          total   stress  (Ry/bohr**3)                   (kbar)     P=59672.81
   0.40565298   0.00000120   0.00000079      59673.60      0.18      0.12
   0.00000120   0.40564175  -0.00000109          0.18  59671.95     -0.16
   0.00000079  -0.00000109   0.40564796          0.12     -0.16  59672.87


     Writing output data file fe_scf_fcc_2.save/
 
     init_run     :      0.11s CPU      0.16s WALL (       1 calls)
     electrons    :      1.53s CPU      1.69s WALL (       1 calls)
     forces       :      0.01s CPU      0.01s WALL (       1 calls)
     stress       :      0.02s CPU      0.02s WALL (       1 calls)

     Called by init_run:
     wfcinit      :      0.06s CPU      0.07s WALL (       1 calls)
     potinit      :      0.01s CPU      0.02s WALL (       1 calls)
     hinit0       :      0.04s CPU      0.07s WALL (       1 calls)

     Called by electrons:
     c_bands      :      1.16s CPU      1.28s WALL (      12 calls)
     sum_band     :      0.19s CPU      0.21s WALL (      12 calls)
     v_of_rho     :      0.01s CPU      0.01s WALL (      13 calls)
     newd         :      0.00s CPU      0.00s WALL (      13 calls)
     PAW_pot      :      0.15s CPU      0.17s WALL (      13 calls)
     mix_rho      :      0.01s CPU      0.01s WALL (      12 calls)

     Called by c_bands:
     init_us_2    :      0.01s CPU      0.01s WALL (     864 calls)
     cegterg      :      1.12s CPU      1.23s WALL (     384 calls)

     Called by sum_band:
     sum_band:bec :      0.00s CPU      0.00s WALL (     384 calls)
     addusdens    :      0.00s CPU      0.00s WALL (      12 calls)

     Called by *egterg:
     h_psi        :      0.84s CPU      0.93s WALL (    1170 calls)
     s_psi        :      0.01s CPU      0.01s WALL (    1170 calls)
     g_psi        :      0.00s CPU      0.00s WALL (     754 calls)
     cdiaghg      :      0.19s CPU      0.20s WALL (    1138 calls)

     Called by h_psi:
     h_psi:pot    :      0.84s CPU      0.93s WALL (    1170 calls)
     h_psi:calbec :      0.07s CPU      0.08s WALL (    1170 calls)
     vloc_psi     :      0.75s CPU      0.83s WALL (    1170 calls)
     add_vuspsi   :      0.01s CPU      0.02s WALL (    1170 calls)

     General routines
     calbec       :      0.10s CPU      0.11s WALL (    1714 calls)
     fft          :      0.04s CPU      0.07s WALL (     169 calls)
     ffts         :      0.00s CPU      0.00s WALL (      12 calls)
     fftw         :      0.84s CPU      0.94s WALL (   23800 calls)
 
     Parallel routines
     fft_scatt_xy :      0.06s CPU      0.07s WALL (   23981 calls)
     fft_scatt_yz :      0.62s CPU      0.69s WALL (   23981 calls)
 
     PWSCF        :     2.30s CPU         2.70s WALL

 
   This run was terminated on:  19:10:12  22Oct2019            

=------------------------------------------------------------------------------=
   JOB DONE.
=------------------------------------------------------------------------------=
