
     Program PWSCF v.6.3 starts on 22Oct2019 at 19: 3:16 

     This program is part of the open-source Quantum ESPRESSO suite
     for quantum simulation of materials; please cite
         "P. Giannozzi et al., J. Phys.:Condens. Matter 21 395502 (2009);
         "P. Giannozzi et al., J. Phys.:Condens. Matter 29 465901 (2017);
          URL http://www.quantum-espresso.org", 
     in publications or presentations arising from this work. More details at
     http://www.quantum-espresso.org/quote

     Parallel version (MPI & OpenMP), running on      20 processor cores
     Number of MPI processes:                20
     Threads/MPI process:                     1

     MPI processes distributed on     1 nodes
     R & G space division:  proc/nbgrp/npool/nimage =      20
     Reading input from /rds/homes/b/bxp912/jobs/20191022_test/wd/runpwscf/file_10066.in
Warning: card &IONS ignored
Warning: card ION_DYNAMICS = 'BFGS', ignored
Warning: card / ignored
Warning: card &CELL ignored
Warning: card CELL_DYNAMICS = 'BFGS', ignored
Warning: card CELL_FACTOR = 2.0, ignored
Warning: card PRESS = 0.0, ignored
Warning: card / ignored

     Current dimensions of program PWSCF are:
     Max number of different atomic species (ntypx) = 10
     Max number of k-points (npk) =  40000
     Max angular momentum in pseudopotentials (lmaxx) =  3
     Message from routine read_upf::
     Pseudo file /rds/homes/b/bxp912/pp/Al.pbe-nl-kjpaw_psl.1.0.0.UPF has been successfully fixed on the fly.
To avoid this message in the future you can permanently fix 
 your pseudo files following instructions given in: 
https://gitlab.com/QEF/q-e/blob/master/upftools/how_to_fix_upf.md
               file Al.pbe-nl-kjpaw_psl.1.0.0.UPF: wavefunction(s)  3S 3P renormalized

     Subspace diagonalization in iterative solution of the eigenvalue problem:
     a serial algorithm will be used

 
     Parallelization info
     --------------------
     sticks:   dense  smooth     PW     G-vecs:    dense   smooth      PW
     Min           6       6      6                   54       54      52
     Max           8       8      8                   65       65      53
     Sum         137     137    129                 1141     1141    1045
 


     bravais-lattice index     =            0
     lattice parameter (alat)  =       4.0400  a.u.
     unit-cell volume          =      65.9393 (a.u.)^3
     number of atoms/cell      =            4
     number of atomic types    =            1
     number of electrons       =        12.00
     number of Kohn-Sham states=           10
     kinetic-energy cutoff     =      80.0000  Ry
     charge density cutoff     =     100.0000  Ry
     convergence threshold     =      1.0E-06
     mixing beta               =       0.1000
     number of iterations used =           10  TF        mixing
     Exchange-correlation      = SLA PW PBX PBC ( 1  4  3  4 0 0)

     celldm(1)=   4.040000  celldm(2)=   0.000000  celldm(3)=   0.000000
     celldm(4)=   0.000000  celldm(5)=   0.000000  celldm(6)=   0.000000

     crystal axes: (cart. coord. in units of alat)
               a(1) = (   1.000000   0.000000   0.000000 )  
               a(2) = (   0.000000   1.000000   0.000000 )  
               a(3) = (   0.000000   0.000000   1.000000 )  

     reciprocal axes: (cart. coord. in units 2 pi/alat)
               b(1) = (  1.000000  0.000000  0.000000 )  
               b(2) = (  0.000000  1.000000  0.000000 )  
               b(3) = (  0.000000  0.000000  1.000000 )  


     PseudoPot. # 1 for Al read from file:
     /rds/homes/b/bxp912/pp/Al.pbe-nl-kjpaw_psl.1.0.0.UPF
     MD5 check sum: 339dbea23cf3ab9a065ad45c0f9085d7
     Pseudo is Projector augmented-wave + core cor, Zval =  3.0
     Generated using "atomic" code by A. Dal Corso v.5.1
     Shape of augmentation charge: PSQ
     Using radial grid of 1135 points,  4 beta functions with: 
                l(1) =   0
                l(2) =   0
                l(3) =   1
                l(4) =   1
     Q(r) pseudized with 0 coefficients 


     atomic species   valence    mass     pseudopotential
        Al             3.00    26.98200     Al( 1.00)

     No symmetry found



   Cartesian axes

     site n.     atom                  positions (alat units)
         1           Al  tau(   1) = (  -0.0001235   0.0000359   0.0002572  )
         2           Al  tau(   2) = (   0.5003009   0.4992819   0.0002658  )
         3           Al  tau(   3) = (   0.4996490   0.0001153   0.5011170  )
         4           Al  tau(   4) = (  -0.0000756   0.5008267   0.5006943  )

     number of k points=    32  Marzari-Vanderbilt smearing, width (Ry)=  0.0200
                       cart. coord. in units 2pi/alat
        k(    1) = (   0.1250000   0.1250000   0.1250000), wk =   0.0625000
        k(    2) = (   0.1250000   0.1250000   0.3750000), wk =   0.0625000
        k(    3) = (   0.1250000   0.3750000   0.3750000), wk =   0.0625000
        k(    4) = (   0.3750000   0.3750000   0.3750000), wk =   0.0625000
        k(    5) = (  -0.1250000  -0.1250000   0.1250000), wk =   0.0625000
        k(    6) = (  -0.1250000   0.1250000  -0.1250000), wk =   0.0625000
        k(    7) = (   0.1250000  -0.1250000  -0.1250000), wk =   0.0625000
        k(    8) = (  -0.1250000  -0.1250000   0.3750000), wk =   0.0625000
        k(    9) = (  -0.1250000   0.1250000  -0.3750000), wk =   0.0625000
        k(   10) = (   0.1250000  -0.1250000  -0.3750000), wk =   0.0625000
        k(   11) = (   0.3750000  -0.1250000   0.1250000), wk =   0.0625000
        k(   12) = (  -0.3750000  -0.1250000  -0.1250000), wk =   0.0625000
        k(   13) = (   0.3750000   0.1250000  -0.1250000), wk =   0.0625000
        k(   14) = (  -0.3750000   0.1250000   0.1250000), wk =   0.0625000
        k(   15) = (  -0.1250000   0.3750000   0.1250000), wk =   0.0625000
        k(   16) = (  -0.1250000  -0.3750000  -0.1250000), wk =   0.0625000
        k(   17) = (   0.1250000   0.3750000  -0.1250000), wk =   0.0625000
        k(   18) = (   0.1250000  -0.3750000   0.1250000), wk =   0.0625000
        k(   19) = (  -0.1250000  -0.3750000   0.3750000), wk =   0.0625000
        k(   20) = (  -0.1250000   0.3750000  -0.3750000), wk =   0.0625000
        k(   21) = (   0.1250000  -0.3750000  -0.3750000), wk =   0.0625000
        k(   22) = (   0.3750000   0.1250000  -0.3750000), wk =   0.0625000
        k(   23) = (  -0.3750000  -0.1250000  -0.3750000), wk =   0.0625000
        k(   24) = (   0.3750000  -0.1250000   0.3750000), wk =   0.0625000
        k(   25) = (  -0.3750000   0.1250000   0.3750000), wk =   0.0625000
        k(   26) = (   0.3750000  -0.3750000   0.1250000), wk =   0.0625000
        k(   27) = (  -0.3750000  -0.3750000  -0.1250000), wk =   0.0625000
        k(   28) = (   0.3750000   0.3750000  -0.1250000), wk =   0.0625000
        k(   29) = (  -0.3750000   0.3750000   0.1250000), wk =   0.0625000
        k(   30) = (  -0.3750000  -0.3750000   0.3750000), wk =   0.0625000
        k(   31) = (  -0.3750000   0.3750000  -0.3750000), wk =   0.0625000
        k(   32) = (   0.3750000  -0.3750000  -0.3750000), wk =   0.0625000

     Dense  grid:     1141 G-vectors     FFT dimensions: (  15,  15,  15)

     Estimated max dynamical RAM per process >       0.56 MB

     Estimated total dynamical RAM >      11.11 MB

     Initial potential from superposition of free atoms

     starting charge   11.99084, renormalised to   12.00000
     Starting wfcs are   16 randomized atomic wfcs
     Checking if some PAW data can be deallocated... 

     total cpu time spent up to now is        0.7 secs

     Self-consistent Calculation

     iteration #  1     ecut=    80.00 Ry     beta= 0.10
     Davidson diagonalization with overlap
     ethr =  1.00E-02,  avg # of iterations =  4.9

     total cpu time spent up to now is        0.9 secs

     total energy              =    -141.65296472 Ry
     Harris-Foulkes estimate   =    -141.80725120 Ry
     estimated scf accuracy    <       0.18120778 Ry

     iteration #  2     ecut=    80.00 Ry     beta= 0.10
     Davidson diagonalization with overlap
     ethr =  1.51E-03,  avg # of iterations =  1.0

     total cpu time spent up to now is        1.0 secs

     total energy              =    -141.16272431 Ry
     Harris-Foulkes estimate   =    -141.65553741 Ry
     estimated scf accuracy    <       0.15211278 Ry

     iteration #  3     ecut=    80.00 Ry     beta= 0.10
     Davidson diagonalization with overlap
     ethr =  1.27E-03,  avg # of iterations =  2.0

     total cpu time spent up to now is        1.1 secs

     total energy              =    -141.24408496 Ry
     Harris-Foulkes estimate   =    -141.25634768 Ry
     estimated scf accuracy    <       0.01571750 Ry

     iteration #  4     ecut=    80.00 Ry     beta= 0.10
     Davidson diagonalization with overlap
     ethr =  1.31E-04,  avg # of iterations =  1.0

     total cpu time spent up to now is        1.2 secs

     total energy              =    -141.24165962 Ry
     Harris-Foulkes estimate   =    -141.24451467 Ry
     estimated scf accuracy    <       0.01254458 Ry

     iteration #  5     ecut=    80.00 Ry     beta= 0.10
     Davidson diagonalization with overlap
     ethr =  1.05E-04,  avg # of iterations =  1.0

     total cpu time spent up to now is        1.3 secs

     total energy              =    -141.24364190 Ry
     Harris-Foulkes estimate   =    -141.24273268 Ry
     estimated scf accuracy    <       0.00079904 Ry

     iteration #  6     ecut=    80.00 Ry     beta= 0.10
     Davidson diagonalization with overlap
     ethr =  6.66E-06,  avg # of iterations =  2.8

     total cpu time spent up to now is        1.4 secs

     total energy              =    -141.24389454 Ry
     Harris-Foulkes estimate   =    -141.24391986 Ry
     estimated scf accuracy    <       0.00009887 Ry

     iteration #  7     ecut=    80.00 Ry     beta= 0.10
     Davidson diagonalization with overlap
     ethr =  8.24E-07,  avg # of iterations =  1.2

     total cpu time spent up to now is        1.5 secs

     total energy              =    -141.24293421 Ry
     Harris-Foulkes estimate   =    -141.24389620 Ry
     estimated scf accuracy    <       0.00007632 Ry

     iteration #  8     ecut=    80.00 Ry     beta= 0.10
     Davidson diagonalization with overlap
     ethr =  6.36E-07,  avg # of iterations =  2.8

     total cpu time spent up to now is        1.6 secs

     total energy              =    -141.24302968 Ry
     Harris-Foulkes estimate   =    -141.24300039 Ry
     estimated scf accuracy    <       0.00000746 Ry

     iteration #  9     ecut=    80.00 Ry     beta= 0.10
     Davidson diagonalization with overlap
     ethr =  6.21E-08,  avg # of iterations =  2.0

     total cpu time spent up to now is        1.7 secs

     total energy              =    -141.24293522 Ry
     Harris-Foulkes estimate   =    -141.24303039 Ry
     estimated scf accuracy    <       0.00000790 Ry

     iteration # 10     ecut=    80.00 Ry     beta= 0.10
     Davidson diagonalization with overlap
     ethr =  6.21E-08,  avg # of iterations =  3.0

     total cpu time spent up to now is        1.9 secs

     total energy              =    -141.24294481 Ry
     Harris-Foulkes estimate   =    -141.24294491 Ry
     estimated scf accuracy    <       0.00000116 Ry

     iteration # 11     ecut=    80.00 Ry     beta= 0.10
     Davidson diagonalization with overlap
     ethr =  9.64E-09,  avg # of iterations =  1.0

     total cpu time spent up to now is        2.0 secs

     total energy              =    -141.24294490 Ry
     Harris-Foulkes estimate   =    -141.24294483 Ry
     estimated scf accuracy    <       0.00000115 Ry

     iteration # 12     ecut=    80.00 Ry     beta= 0.10
     Davidson diagonalization with overlap
     ethr =  9.59E-09,  avg # of iterations =  1.0

     total cpu time spent up to now is        2.1 secs

     End of self-consistent calculation

          k = 0.1250 0.1250 0.1250 (   793 PWs)   bands (ev):

    30.9160  41.4385  41.4565  41.4763  52.4293  52.4496  52.4697  54.9334
    54.9433  54.9534

          k = 0.1250 0.1250 0.3750 (   798 PWs)   bands (ev):

    34.4089  39.0153  43.9437  43.9626  51.8127  51.8300  54.8790  54.8876
    55.6926  61.5178

          k = 0.1250 0.3750 0.3750 (   802 PWs)   bands (ev):

    37.4242  41.6590  41.6959  44.5510  50.4950  52.9075  52.9566  57.0472
    57.5692  60.7349

          k = 0.3750 0.3750 0.3750 (   795 PWs)   bands (ev):

    39.8896  43.9785  44.0160  44.0542  47.7763  47.8177  47.8593  51.6516
    66.9752  66.9774

          k =-0.1250-0.1250 0.1250 (   793 PWs)   bands (ev):

    30.9160  41.4423  41.4567  41.4722  52.4336  52.4495  52.4655  54.9355
    54.9433  54.9513

          k =-0.1250 0.1250-0.1250 (   793 PWs)   bands (ev):

    30.9160  41.4458  41.4574  41.4680  52.4377  52.4496  52.4613  54.9376
    54.9434  54.9492

          k = 0.1250-0.1250-0.1250 (   793 PWs)   bands (ev):

    30.9160  41.4440  41.4570  41.4703  52.4355  52.4496  52.4636  54.9365
    54.9433  54.9503

          k =-0.1250-0.1250 0.3750 (   798 PWs)   bands (ev):

    34.4089  39.0153  43.9437  43.9625  51.8127  51.8300  54.8790  54.8877
    55.6923  61.5177

          k =-0.1250 0.1250-0.3750 (   798 PWs)   bands (ev):

    34.4089  39.0153  43.9488  43.9575  51.8174  51.8253  54.8813  54.8853
    55.6924  61.5177

          k = 0.1250-0.1250-0.3750 (   798 PWs)   bands (ev):

    34.4089  39.0152  43.9489  43.9575  51.8174  51.8253  54.8813  54.8853
    55.6926  61.5173

          k = 0.3750-0.1250 0.1250 (   798 PWs)   bands (ev):

    34.4090  39.0152  43.9488  43.9575  51.8172  51.8252  54.8815  54.8855
    55.6926  61.5176

          k =-0.3750-0.1250-0.1250 (   798 PWs)   bands (ev):

    34.4090  39.0151  43.9452  43.9612  51.8141  51.8288  54.8793  54.8867
    55.6932  61.5177

          k = 0.3750 0.1250-0.1250 (   798 PWs)   bands (ev):

    34.4090  39.0151  43.9488  43.9576  51.8171  51.8252  54.8815  54.8855
    55.6926  61.5177

          k =-0.3750 0.1250 0.1250 (   798 PWs)   bands (ev):

    34.4090  39.0152  43.9451  43.9612  51.8141  51.8288  54.8793  54.8867
    55.6928  61.5178

          k =-0.1250 0.3750 0.1250 (   798 PWs)   bands (ev):

    34.4090  39.0151  43.9521  43.9545  51.8203  51.8225  54.8826  54.8838
    55.6925  61.5177

          k =-0.1250-0.3750-0.1250 (   798 PWs)   bands (ev):

    34.4090  39.0151  43.9486  43.9581  51.8170  51.8256  54.8811  54.8855
    55.6926  61.5178

          k = 0.1250 0.3750-0.1250 (   798 PWs)   bands (ev):

    34.4090  39.0151  43.9521  43.9546  51.8202  51.8224  54.8825  54.8837
    55.6928  61.5176

          k = 0.1250-0.3750 0.1250 (   798 PWs)   bands (ev):

    34.4090  39.0151  43.9486  43.9580  51.8170  51.8256  54.8811  54.8855
    55.6925  61.5178

          k =-0.1250-0.3750 0.3750 (   802 PWs)   bands (ev):

    37.4242  41.6674  41.6876  44.5509  50.4952  52.9186  52.9454  57.0466
    57.5701  60.7358

          k =-0.1250 0.3750-0.3750 (   802 PWs)   bands (ev):

    37.4242  41.6674  41.6876  44.5509  50.4951  52.9185  52.9454  57.0462
    57.5706  60.7374

          k = 0.1250-0.3750-0.3750 (   802 PWs)   bands (ev):

    37.4242  41.6590  41.6959  44.5510  50.4950  52.9075  52.9566  57.0468
    57.5694  60.7323

          k = 0.3750 0.1250-0.3750 (   802 PWs)   bands (ev):

    37.4242  41.6746  41.6802  44.5509  50.4950  52.9284  52.9358  57.0473
    57.5694  60.7379

          k =-0.3750-0.1250-0.3750 (   802 PWs)   bands (ev):

    37.4242  41.6666  41.6883  44.5508  50.4953  52.9177  52.9466  57.0475
    57.5690  60.7344

          k = 0.3750-0.1250 0.3750 (   802 PWs)   bands (ev):

    37.4242  41.6666  41.6883  44.5508  50.4951  52.9176  52.9465  57.0476
    57.5691  60.7374

          k =-0.3750 0.1250 0.3750 (   802 PWs)   bands (ev):

    37.4242  41.6746  41.6802  44.5509  50.4951  52.9285  52.9359  57.0469
    57.5694  60.7382

          k = 0.3750-0.3750 0.1250 (   802 PWs)   bands (ev):

    37.4242  41.6675  41.6874  44.5509  50.4948  52.9188  52.9452  57.0475
    57.5692  60.7392

          k =-0.3750-0.3750-0.1250 (   802 PWs)   bands (ev):

    37.4243  41.6558  41.6991  44.5508  50.4952  52.9031  52.9609  57.0454
    57.5711  60.7326

          k = 0.3750 0.3750-0.1250 (   802 PWs)   bands (ev):

    37.4243  41.6558  41.6992  44.5509  50.4950  52.9030  52.9608  57.0475
    57.5691  60.7313

          k =-0.3750 0.3750 0.1250 (   802 PWs)   bands (ev):

    37.4242  41.6675  41.6874  44.5509  50.4952  52.9189  52.9453  57.0429
    57.5736  60.7368

          k =-0.3750-0.3750 0.3750 (   795 PWs)   bands (ev):

    39.8896  43.9863  44.0162  44.0462  47.7850  47.8177  47.8506  51.6518
    66.9747  66.9762

          k =-0.3750 0.3750-0.3750 (   795 PWs)   bands (ev):

    39.8895  43.9940  44.0164  44.0383  47.7935  47.8178  47.8420  51.6518
    66.9743  66.9776

          k = 0.3750-0.3750-0.3750 (   795 PWs)   bands (ev):

    39.8896  43.9899  44.0161  44.0425  47.7891  47.8178  47.8467  51.6517
    66.9738  66.9782

     the Fermi energy is    52.6615 ev

!    total energy              =    -141.24294462 Ry
     Harris-Foulkes estimate   =    -141.24294494 Ry
     estimated scf accuracy    <       0.00000033 Ry

     total all-electron energy =     -1925.814072 Ry

     The total energy is the sum of the following terms:

     one-electron contribution =      58.67236824 Ry
     hartree contribution      =       0.21191658 Ry
     xc contribution           =     -17.28517345 Ry
     ewald contribution        =     -40.85514764 Ry
     one-center paw contrib.   =    -141.98629158 Ry
     smearing contrib. (-TS)   =      -0.00061677 Ry

     convergence has been achieved in  12 iterations

     Forces acting on atoms (cartesian axes, Ry/au):

     atom    1 type  1   force =     0.00200551   -0.00039052    0.01643419
     atom    2 type  1   force =    -0.00323650    0.00370668    0.01640449
     atom    3 type  1   force =    -0.00056436   -0.00069520   -0.01729540
     atom    4 type  1   force =     0.00179535   -0.00262096   -0.01554327

     Total force =     0.033454     Total SCF correction =     0.000004


     Computing stress (Cartesian axis) and pressure

          total   stress  (Ry/bohr**3)                   (kbar)     P=59674.00
   0.40566103   0.00000113   0.00000093      59674.79      0.17      0.14
   0.00000113   0.40564973  -0.00000108          0.17  59673.13     -0.16
   0.00000093  -0.00000108   0.40565624          0.14     -0.16  59674.08


     Writing output data file fe_scf_fcc_2.save/
 
     init_run     :      0.10s CPU      0.15s WALL (       1 calls)
     electrons    :      1.28s CPU      1.40s WALL (       1 calls)
     forces       :      0.01s CPU      0.01s WALL (       1 calls)
     stress       :      0.01s CPU      0.01s WALL (       1 calls)

     Called by init_run:
     wfcinit      :      0.05s CPU      0.06s WALL (       1 calls)
     potinit      :      0.02s CPU      0.02s WALL (       1 calls)
     hinit0       :      0.02s CPU      0.06s WALL (       1 calls)

     Called by electrons:
     c_bands      :      0.97s CPU      1.06s WALL (      12 calls)
     sum_band     :      0.15s CPU      0.16s WALL (      12 calls)
     v_of_rho     :      0.00s CPU      0.01s WALL (      13 calls)
     newd         :      0.00s CPU      0.00s WALL (      13 calls)
     PAW_pot      :      0.15s CPU      0.16s WALL (      13 calls)
     mix_rho      :      0.00s CPU      0.00s WALL (      12 calls)

     Called by c_bands:
     init_us_2    :      0.01s CPU      0.01s WALL (     864 calls)
     cegterg      :      0.94s CPU      1.02s WALL (     384 calls)

     Called by sum_band:
     sum_band:bec :      0.00s CPU      0.00s WALL (     384 calls)
     addusdens    :      0.00s CPU      0.00s WALL (      12 calls)

     Called by *egterg:
     h_psi        :      0.67s CPU      0.73s WALL (    1171 calls)
     s_psi        :      0.01s CPU      0.01s WALL (    1171 calls)
     g_psi        :      0.00s CPU      0.00s WALL (     755 calls)
     cdiaghg      :      0.18s CPU      0.20s WALL (    1139 calls)

     Called by h_psi:
     h_psi:pot    :      0.67s CPU      0.73s WALL (    1171 calls)
     h_psi:calbec :      0.06s CPU      0.07s WALL (    1171 calls)
     vloc_psi     :      0.59s CPU      0.64s WALL (    1171 calls)
     add_vuspsi   :      0.01s CPU      0.01s WALL (    1171 calls)

     General routines
     calbec       :      0.09s CPU      0.10s WALL (    1715 calls)
     fft          :      0.02s CPU      0.06s WALL (     169 calls)
     ffts         :      0.00s CPU      0.00s WALL (      12 calls)
     fftw         :      0.67s CPU      0.73s WALL (   23822 calls)
 
     Parallel routines
     fft_scatt_xy :      0.04s CPU      0.04s WALL (   24003 calls)
     fft_scatt_yz :      0.54s CPU      0.59s WALL (   24003 calls)
 
     PWSCF        :     1.93s CPU         2.40s WALL

 
   This run was terminated on:  19: 3:19  22Oct2019            

=------------------------------------------------------------------------------=
   JOB DONE.
=------------------------------------------------------------------------------=
