
     Program PWSCF v.6.3 starts on 22Oct2019 at 19: 4:35 

     This program is part of the open-source Quantum ESPRESSO suite
     for quantum simulation of materials; please cite
         "P. Giannozzi et al., J. Phys.:Condens. Matter 21 395502 (2009);
         "P. Giannozzi et al., J. Phys.:Condens. Matter 29 465901 (2017);
          URL http://www.quantum-espresso.org", 
     in publications or presentations arising from this work. More details at
     http://www.quantum-espresso.org/quote

     Parallel version (MPI & OpenMP), running on      20 processor cores
     Number of MPI processes:                20
     Threads/MPI process:                     1

     MPI processes distributed on     1 nodes
     R & G space division:  proc/nbgrp/npool/nimage =      20
     Reading input from /rds/homes/b/bxp912/jobs/20191022_test/wd/runpwscf/file_10096.in
Warning: card &IONS ignored
Warning: card ION_DYNAMICS = 'BFGS', ignored
Warning: card / ignored
Warning: card &CELL ignored
Warning: card CELL_DYNAMICS = 'BFGS', ignored
Warning: card CELL_FACTOR = 2.0, ignored
Warning: card PRESS = 0.0, ignored
Warning: card / ignored

     Current dimensions of program PWSCF are:
     Max number of different atomic species (ntypx) = 10
     Max number of k-points (npk) =  40000
     Max angular momentum in pseudopotentials (lmaxx) =  3
     Message from routine read_upf::
     Pseudo file /rds/homes/b/bxp912/pp/Al.pbe-nl-kjpaw_psl.1.0.0.UPF has been successfully fixed on the fly.
To avoid this message in the future you can permanently fix 
 your pseudo files following instructions given in: 
https://gitlab.com/QEF/q-e/blob/master/upftools/how_to_fix_upf.md
               file Al.pbe-nl-kjpaw_psl.1.0.0.UPF: wavefunction(s)  3S 3P renormalized

     Subspace diagonalization in iterative solution of the eigenvalue problem:
     a serial algorithm will be used

 
     Parallelization info
     --------------------
     sticks:   dense  smooth     PW     G-vecs:    dense   smooth      PW
     Min           8       8      5                   88       88      45
     Max           9       9      6                   93       93      48
     Sum         177     177    113                 1839     1839     925
 


     bravais-lattice index     =            0
     lattice parameter (alat)  =       4.0400  a.u.
     unit-cell volume          =      65.9393 (a.u.)^3
     number of atoms/cell      =            4
     number of atomic types    =            1
     number of electrons       =        12.00
     number of Kohn-Sham states=           10
     kinetic-energy cutoff     =      70.0000  Ry
     charge density cutoff     =     140.0000  Ry
     convergence threshold     =      1.0E-06
     mixing beta               =       0.1000
     number of iterations used =           10  TF        mixing
     Exchange-correlation      = SLA PW PBX PBC ( 1  4  3  4 0 0)

     celldm(1)=   4.040000  celldm(2)=   0.000000  celldm(3)=   0.000000
     celldm(4)=   0.000000  celldm(5)=   0.000000  celldm(6)=   0.000000

     crystal axes: (cart. coord. in units of alat)
               a(1) = (   1.000000   0.000000   0.000000 )  
               a(2) = (   0.000000   1.000000   0.000000 )  
               a(3) = (   0.000000   0.000000   1.000000 )  

     reciprocal axes: (cart. coord. in units 2 pi/alat)
               b(1) = (  1.000000  0.000000  0.000000 )  
               b(2) = (  0.000000  1.000000  0.000000 )  
               b(3) = (  0.000000  0.000000  1.000000 )  


     PseudoPot. # 1 for Al read from file:
     /rds/homes/b/bxp912/pp/Al.pbe-nl-kjpaw_psl.1.0.0.UPF
     MD5 check sum: 339dbea23cf3ab9a065ad45c0f9085d7
     Pseudo is Projector augmented-wave + core cor, Zval =  3.0
     Generated using "atomic" code by A. Dal Corso v.5.1
     Shape of augmentation charge: PSQ
     Using radial grid of 1135 points,  4 beta functions with: 
                l(1) =   0
                l(2) =   0
                l(3) =   1
                l(4) =   1
     Q(r) pseudized with 0 coefficients 


     atomic species   valence    mass     pseudopotential
        Al             3.00    26.98200     Al( 1.00)

     No symmetry found



   Cartesian axes

     site n.     atom                  positions (alat units)
         1           Al  tau(   1) = (  -0.0001235   0.0000359   0.0002572  )
         2           Al  tau(   2) = (   0.5003009   0.4992819   0.0002658  )
         3           Al  tau(   3) = (   0.4996490   0.0001153   0.5011170  )
         4           Al  tau(   4) = (  -0.0000756   0.5008267   0.5006943  )

     number of k points=    32  Marzari-Vanderbilt smearing, width (Ry)=  0.0200
                       cart. coord. in units 2pi/alat
        k(    1) = (   0.1250000   0.1250000   0.1250000), wk =   0.0625000
        k(    2) = (   0.1250000   0.1250000   0.3750000), wk =   0.0625000
        k(    3) = (   0.1250000   0.3750000   0.3750000), wk =   0.0625000
        k(    4) = (   0.3750000   0.3750000   0.3750000), wk =   0.0625000
        k(    5) = (  -0.1250000  -0.1250000   0.1250000), wk =   0.0625000
        k(    6) = (  -0.1250000   0.1250000  -0.1250000), wk =   0.0625000
        k(    7) = (   0.1250000  -0.1250000  -0.1250000), wk =   0.0625000
        k(    8) = (  -0.1250000  -0.1250000   0.3750000), wk =   0.0625000
        k(    9) = (  -0.1250000   0.1250000  -0.3750000), wk =   0.0625000
        k(   10) = (   0.1250000  -0.1250000  -0.3750000), wk =   0.0625000
        k(   11) = (   0.3750000  -0.1250000   0.1250000), wk =   0.0625000
        k(   12) = (  -0.3750000  -0.1250000  -0.1250000), wk =   0.0625000
        k(   13) = (   0.3750000   0.1250000  -0.1250000), wk =   0.0625000
        k(   14) = (  -0.3750000   0.1250000   0.1250000), wk =   0.0625000
        k(   15) = (  -0.1250000   0.3750000   0.1250000), wk =   0.0625000
        k(   16) = (  -0.1250000  -0.3750000  -0.1250000), wk =   0.0625000
        k(   17) = (   0.1250000   0.3750000  -0.1250000), wk =   0.0625000
        k(   18) = (   0.1250000  -0.3750000   0.1250000), wk =   0.0625000
        k(   19) = (  -0.1250000  -0.3750000   0.3750000), wk =   0.0625000
        k(   20) = (  -0.1250000   0.3750000  -0.3750000), wk =   0.0625000
        k(   21) = (   0.1250000  -0.3750000  -0.3750000), wk =   0.0625000
        k(   22) = (   0.3750000   0.1250000  -0.3750000), wk =   0.0625000
        k(   23) = (  -0.3750000  -0.1250000  -0.3750000), wk =   0.0625000
        k(   24) = (   0.3750000  -0.1250000   0.3750000), wk =   0.0625000
        k(   25) = (  -0.3750000   0.1250000   0.3750000), wk =   0.0625000
        k(   26) = (   0.3750000  -0.3750000   0.1250000), wk =   0.0625000
        k(   27) = (  -0.3750000  -0.3750000  -0.1250000), wk =   0.0625000
        k(   28) = (   0.3750000   0.3750000  -0.1250000), wk =   0.0625000
        k(   29) = (  -0.3750000   0.3750000   0.1250000), wk =   0.0625000
        k(   30) = (  -0.3750000  -0.3750000   0.3750000), wk =   0.0625000
        k(   31) = (  -0.3750000   0.3750000  -0.3750000), wk =   0.0625000
        k(   32) = (   0.3750000  -0.3750000  -0.3750000), wk =   0.0625000

     Dense  grid:     1839 G-vectors     FFT dimensions: (  15,  15,  15)

     Estimated max dynamical RAM per process >       0.55 MB

     Estimated total dynamical RAM >      10.96 MB

     Initial potential from superposition of free atoms

     starting charge   11.99084, renormalised to   12.00000
     Starting wfcs are   16 randomized atomic wfcs
     Checking if some PAW data can be deallocated... 

     total cpu time spent up to now is        0.7 secs

     Self-consistent Calculation

     iteration #  1     ecut=    70.00 Ry     beta= 0.10
     Davidson diagonalization with overlap
     ethr =  1.00E-02,  avg # of iterations =  4.9

     total cpu time spent up to now is        0.9 secs

     total energy              =    -141.65272194 Ry
     Harris-Foulkes estimate   =    -141.80700140 Ry
     estimated scf accuracy    <       0.18111076 Ry

     iteration #  2     ecut=    70.00 Ry     beta= 0.10
     Davidson diagonalization with overlap
     ethr =  1.51E-03,  avg # of iterations =  1.0

     total cpu time spent up to now is        1.0 secs

     total energy              =    -141.16256795 Ry
     Harris-Foulkes estimate   =    -141.65525602 Ry
     estimated scf accuracy    <       0.15203902 Ry

     iteration #  3     ecut=    70.00 Ry     beta= 0.10
     Davidson diagonalization with overlap
     ethr =  1.27E-03,  avg # of iterations =  2.0

     total cpu time spent up to now is        1.1 secs

     total energy              =    -141.24333813 Ry
     Harris-Foulkes estimate   =    -141.25569180 Ry
     estimated scf accuracy    <       0.01562871 Ry

     iteration #  4     ecut=    70.00 Ry     beta= 0.10
     Davidson diagonalization with overlap
     ethr =  1.30E-04,  avg # of iterations =  1.0

     total cpu time spent up to now is        1.2 secs

     total energy              =    -141.24143187 Ry
     Harris-Foulkes estimate   =    -141.24378294 Ry
     estimated scf accuracy    <       0.01242555 Ry

     iteration #  5     ecut=    70.00 Ry     beta= 0.10
     Davidson diagonalization with overlap
     ethr =  1.04E-04,  avg # of iterations =  1.0

     total cpu time spent up to now is        1.3 secs

     total energy              =    -141.24339582 Ry
     Harris-Foulkes estimate   =    -141.24250767 Ry
     estimated scf accuracy    <       0.00073921 Ry

     iteration #  6     ecut=    70.00 Ry     beta= 0.10
     Davidson diagonalization with overlap
     ethr =  6.16E-06,  avg # of iterations =  2.8

     total cpu time spent up to now is        1.4 secs

     total energy              =    -141.24365020 Ry
     Harris-Foulkes estimate   =    -141.24365233 Ry
     estimated scf accuracy    <       0.00010299 Ry

     iteration #  7     ecut=    70.00 Ry     beta= 0.10
     Davidson diagonalization with overlap
     ethr =  8.58E-07,  avg # of iterations =  1.1

     total cpu time spent up to now is        1.5 secs

     total energy              =    -141.24266935 Ry
     Harris-Foulkes estimate   =    -141.24365139 Ry
     estimated scf accuracy    <       0.00009009 Ry

     iteration #  8     ecut=    70.00 Ry     beta= 0.10
     Davidson diagonalization with overlap
     ethr =  7.51E-07,  avg # of iterations =  2.7

     total cpu time spent up to now is        1.6 secs

     total energy              =    -141.24281462 Ry
     Harris-Foulkes estimate   =    -141.24274957 Ry
     estimated scf accuracy    <       0.00001852 Ry

     iteration #  9     ecut=    70.00 Ry     beta= 0.10
     Davidson diagonalization with overlap
     ethr =  1.54E-07,  avg # of iterations =  2.0

     total cpu time spent up to now is        1.7 secs

     total energy              =    -141.24271677 Ry
     Harris-Foulkes estimate   =    -141.24281796 Ry
     estimated scf accuracy    <       0.00000809 Ry

     iteration # 10     ecut=    70.00 Ry     beta= 0.10
     Davidson diagonalization with overlap
     ethr =  6.74E-08,  avg # of iterations =  3.0

     total cpu time spent up to now is        1.8 secs

     End of self-consistent calculation

          k = 0.1250 0.1250 0.1250 (   666 PWs)   bands (ev):

    30.9151  41.4374  41.4554  41.4753  52.4297  52.4500  52.4701  54.9330
    54.9429  54.9529

          k = 0.1250 0.1250 0.3750 (   655 PWs)   bands (ev):

    34.4079  39.0141  43.9426  43.9615  51.8127  51.8299  54.8788  54.8875
    55.6930  61.5175

          k = 0.1250 0.3750 0.3750 (   646 PWs)   bands (ev):

    37.4232  41.6579  41.6949  44.5499  50.4948  52.9075  52.9566  57.0474
    57.5692  60.7344

          k = 0.3750 0.3750 0.3750 (   657 PWs)   bands (ev):

    39.8887  43.9776  44.0151  44.0533  47.7758  47.8173  47.8588  51.6513
    66.9746  66.9773

          k =-0.1250-0.1250 0.1250 (   666 PWs)   bands (ev):

    30.9151  41.4413  41.4557  41.4711  52.4340  52.4499  52.4659  54.9351
    54.9429  54.9508

          k =-0.1250 0.1250-0.1250 (   666 PWs)   bands (ev):

    30.9151  41.4447  41.4564  41.4669  52.4381  52.4500  52.4617  54.9372
    54.9429  54.9488

          k = 0.1250-0.1250-0.1250 (   666 PWs)   bands (ev):

    30.9151  41.4429  41.4560  41.4692  52.4359  52.4501  52.4639  54.9360
    54.9429  54.9498

          k =-0.1250-0.1250 0.3750 (   655 PWs)   bands (ev):

    34.4079  39.0142  43.9426  43.9614  51.8127  51.8300  54.8788  54.8875
    55.6928  61.5176

          k =-0.1250 0.1250-0.3750 (   655 PWs)   bands (ev):

    34.4079  39.0142  43.9477  43.9564  51.8173  51.8252  54.8812  54.8852
    55.6928  61.5175

          k = 0.1250-0.1250-0.3750 (   655 PWs)   bands (ev):

    34.4079  39.0141  43.9478  43.9564  51.8173  51.8252  54.8811  54.8851
    55.6930  61.5175

          k = 0.3750-0.1250 0.1250 (   655 PWs)   bands (ev):

    34.4080  39.0141  43.9477  43.9564  51.8171  51.8251  54.8813  54.8853
    55.6930  61.5176

          k =-0.3750-0.1250-0.1250 (   655 PWs)   bands (ev):

    34.4080  39.0140  43.9441  43.9601  51.8140  51.8287  54.8791  54.8865
    55.6936  61.5176

          k = 0.3750 0.1250-0.1250 (   655 PWs)   bands (ev):

    34.4080  39.0140  43.9477  43.9565  51.8171  51.8251  54.8813  54.8854
    55.6931  61.5176

          k =-0.3750 0.1250 0.1250 (   655 PWs)   bands (ev):

    34.4080  39.0141  43.9440  43.9601  51.8141  51.8288  54.8792  54.8865
    55.6933  61.5175

          k =-0.1250 0.3750 0.1250 (   655 PWs)   bands (ev):

    34.4080  39.0140  43.9510  43.9534  51.8202  51.8224  54.8825  54.8836
    55.6930  61.5176

          k =-0.1250-0.3750-0.1250 (   655 PWs)   bands (ev):

    34.4080  39.0140  43.9475  43.9570  51.8169  51.8255  54.8810  54.8853
    55.6930  61.5176

          k = 0.1250 0.3750-0.1250 (   655 PWs)   bands (ev):

    34.4080  39.0140  43.9510  43.9534  51.8202  51.8224  54.8823  54.8835
    55.6933  61.5175

          k = 0.1250-0.3750 0.1250 (   655 PWs)   bands (ev):

    34.4080  39.0140  43.9475  43.9569  51.8169  51.8256  54.8810  54.8853
    55.6929  61.5176

          k =-0.1250-0.3750 0.3750 (   646 PWs)   bands (ev):

    37.4232  41.6664  41.6865  44.5497  50.4950  52.9186  52.9454  57.0468
    57.5701  60.7395

          k =-0.1250 0.3750-0.3750 (   646 PWs)   bands (ev):

    37.4232  41.6664  41.6865  44.5498  50.4950  52.9185  52.9453  57.0464
    57.5706  60.7379

          k = 0.1250-0.3750-0.3750 (   646 PWs)   bands (ev):

    37.4232  41.6579  41.6949  44.5499  50.4949  52.9075  52.9566  57.0470
    57.5694  60.7343

          k = 0.3750 0.1250-0.3750 (   646 PWs)   bands (ev):

    37.4232  41.6736  41.6792  44.5498  50.4948  52.9284  52.9358  57.0475
    57.5694  60.7378

          k =-0.3750-0.1250-0.3750 (   646 PWs)   bands (ev):

    37.4232  41.6655  41.6873  44.5497  50.4951  52.9177  52.9466  57.0477
    57.5690  60.7347

          k = 0.3750-0.1250 0.3750 (   646 PWs)   bands (ev):

    37.4232  41.6655  41.6873  44.5497  50.4949  52.9176  52.9465  57.0478
    57.5691  60.7347

          k =-0.3750 0.1250 0.3750 (   646 PWs)   bands (ev):

    37.4232  41.6736  41.6792  44.5498  50.4950  52.9285  52.9359  57.0471
    57.5694  60.7377

          k = 0.3750-0.3750 0.1250 (   646 PWs)   bands (ev):

    37.4232  41.6665  41.6863  44.5498  50.4947  52.9187  52.9452  57.0477
    57.5692  60.7366

          k =-0.3750-0.3750-0.1250 (   646 PWs)   bands (ev):

    37.4233  41.6547  41.6981  44.5497  50.4950  52.9031  52.9609  57.0456
    57.5711  60.7336

          k = 0.3750 0.3750-0.1250 (   646 PWs)   bands (ev):

    37.4232  41.6548  41.6981  44.5497  50.4949  52.9030  52.9608  57.0477
    57.5691  60.7319

          k =-0.3750 0.3750 0.1250 (   646 PWs)   bands (ev):

    37.4232  41.6665  41.6863  44.5498  50.4950  52.9188  52.9453  57.0430
    57.5737  60.7354

          k =-0.3750-0.3750 0.3750 (   657 PWs)   bands (ev):

    39.8887  43.9854  44.0153  44.0452  47.7845  47.8173  47.8501  51.6514
    66.9745  66.9785

          k =-0.3750 0.3750-0.3750 (   657 PWs)   bands (ev):

    39.8886  43.9930  44.0155  44.0373  47.7930  47.8173  47.8416  51.6514
    66.9750  66.9768

          k = 0.3750-0.3750-0.3750 (   657 PWs)   bands (ev):

    39.8887  43.9890  44.0152  44.0415  47.7886  47.8174  47.8462  51.6513
    66.9756  66.9765

     the Fermi energy is    52.6617 ev

!    total energy              =    -141.24272662 Ry
     Harris-Foulkes estimate   =    -141.24272694 Ry
     estimated scf accuracy    <       0.00000082 Ry

     total all-electron energy =     -1925.813854 Ry

     The total energy is the sum of the following terms:

     one-electron contribution =      58.67259601 Ry
     hartree contribution      =       0.21196886 Ry
     xc contribution           =     -17.28518842 Ry
     ewald contribution        =     -40.85514766 Ry
     one-center paw contrib.   =    -141.98633218 Ry
     smearing contrib. (-TS)   =      -0.00062324 Ry

     convergence has been achieved in  10 iterations

     Forces acting on atoms (cartesian axes, Ry/au):

     atom    1 type  1   force =     0.00202202   -0.00041024    0.01637449
     atom    2 type  1   force =    -0.00327010    0.00368508    0.01634584
     atom    3 type  1   force =    -0.00057439   -0.00064698   -0.01725872
     atom    4 type  1   force =     0.00182248   -0.00262786   -0.01546160

     Total force =     0.033343     Total SCF correction =     0.000024


     Computing stress (Cartesian axis) and pressure

          total   stress  (Ry/bohr**3)                   (kbar)     P=59671.76
   0.40564592   0.00000104   0.00000105      59672.56      0.15      0.15
   0.00000104   0.40563482  -0.00000079          0.15  59670.93     -0.12
   0.00000105  -0.00000079   0.40564063          0.15     -0.12  59671.79


     Writing output data file fe_scf_fcc_2.save/
 
     init_run     :      0.12s CPU      0.15s WALL (       1 calls)
     electrons    :      1.04s CPU      1.17s WALL (       1 calls)
     forces       :      0.01s CPU      0.01s WALL (       1 calls)
     stress       :      0.01s CPU      0.01s WALL (       1 calls)

     Called by init_run:
     wfcinit      :      0.04s CPU      0.05s WALL (       1 calls)
     potinit      :      0.03s CPU      0.03s WALL (       1 calls)
     hinit0       :      0.05s CPU      0.06s WALL (       1 calls)

     Called by electrons:
     c_bands      :      0.79s CPU      0.89s WALL (      10 calls)
     sum_band     :      0.11s CPU      0.13s WALL (      10 calls)
     v_of_rho     :      0.00s CPU      0.00s WALL (      11 calls)
     newd         :      0.00s CPU      0.00s WALL (      11 calls)
     PAW_pot      :      0.13s CPU      0.14s WALL (      11 calls)
     mix_rho      :      0.00s CPU      0.00s WALL (      10 calls)

     Called by c_bands:
     init_us_2    :      0.01s CPU      0.01s WALL (     736 calls)
     cegterg      :      0.77s CPU      0.86s WALL (     320 calls)

     Called by sum_band:
     sum_band:bec :      0.00s CPU      0.00s WALL (     320 calls)
     addusdens    :      0.00s CPU      0.00s WALL (      10 calls)

     Called by *egterg:
     h_psi        :      0.53s CPU      0.60s WALL (    1038 calls)
     s_psi        :      0.01s CPU      0.01s WALL (    1038 calls)
     g_psi        :      0.00s CPU      0.00s WALL (     686 calls)
     cdiaghg      :      0.17s CPU      0.19s WALL (    1006 calls)

     Called by h_psi:
     h_psi:pot    :      0.53s CPU      0.60s WALL (    1038 calls)
     h_psi:calbec :      0.05s CPU      0.06s WALL (    1038 calls)
     vloc_psi     :      0.47s CPU      0.52s WALL (    1038 calls)
     add_vuspsi   :      0.01s CPU      0.01s WALL (    1038 calls)

     General routines
     calbec       :      0.07s CPU      0.08s WALL (    1518 calls)
     fft          :      0.06s CPU      0.07s WALL (     147 calls)
     ffts         :      0.00s CPU      0.00s WALL (      10 calls)
     fftw         :      0.52s CPU      0.59s WALL (   20684 calls)
 
     Parallel routines
     fft_scatt_xy :      0.03s CPU      0.04s WALL (   20841 calls)
     fft_scatt_yz :      0.46s CPU      0.51s WALL (   20841 calls)
 
     PWSCF        :     1.69s CPU         4.86s WALL

 
   This run was terminated on:  19: 4:40  22Oct2019            

=------------------------------------------------------------------------------=
   JOB DONE.
=------------------------------------------------------------------------------=
