
     Program PWSCF v.6.3 starts on 22Oct2019 at 19: 5:17 

     This program is part of the open-source Quantum ESPRESSO suite
     for quantum simulation of materials; please cite
         "P. Giannozzi et al., J. Phys.:Condens. Matter 21 395502 (2009);
         "P. Giannozzi et al., J. Phys.:Condens. Matter 29 465901 (2017);
          URL http://www.quantum-espresso.org", 
     in publications or presentations arising from this work. More details at
     http://www.quantum-espresso.org/quote

     Parallel version (MPI & OpenMP), running on      20 processor cores
     Number of MPI processes:                20
     Threads/MPI process:                     1

     MPI processes distributed on     1 nodes
     R & G space division:  proc/nbgrp/npool/nimage =      20
     Reading input from /rds/homes/b/bxp912/jobs/20191022_test/wd/runpwscf/file_10110.in
Warning: card &IONS ignored
Warning: card ION_DYNAMICS = 'BFGS', ignored
Warning: card / ignored
Warning: card &CELL ignored
Warning: card CELL_DYNAMICS = 'BFGS', ignored
Warning: card CELL_FACTOR = 2.0, ignored
Warning: card PRESS = 0.0, ignored
Warning: card / ignored

     Current dimensions of program PWSCF are:
     Max number of different atomic species (ntypx) = 10
     Max number of k-points (npk) =  40000
     Max angular momentum in pseudopotentials (lmaxx) =  3
     Message from routine read_upf::
     Pseudo file /rds/homes/b/bxp912/pp/Al.pbe-nl-kjpaw_psl.1.0.0.UPF has been successfully fixed on the fly.
To avoid this message in the future you can permanently fix 
 your pseudo files following instructions given in: 
https://gitlab.com/QEF/q-e/blob/master/upftools/how_to_fix_upf.md
               file Al.pbe-nl-kjpaw_psl.1.0.0.UPF: wavefunction(s)  3S 3P renormalized

     Subspace diagonalization in iterative solution of the eigenvalue problem:
     a serial algorithm will be used

 
     Parallelization info
     --------------------
     sticks:   dense  smooth     PW     G-vecs:    dense   smooth      PW
     Min          10      10      4                  114      114      34
     Max          11      11      5                  117      117      39
     Sum         213     213     97                 2301     2301     739
 


     bravais-lattice index     =            0
     lattice parameter (alat)  =       4.0400  a.u.
     unit-cell volume          =      65.9393 (a.u.)^3
     number of atoms/cell      =            4
     number of atomic types    =            1
     number of electrons       =        12.00
     number of Kohn-Sham states=           10
     kinetic-energy cutoff     =      60.0000  Ry
     charge density cutoff     =     160.0000  Ry
     convergence threshold     =      1.0E-06
     mixing beta               =       0.1000
     number of iterations used =           10  TF        mixing
     Exchange-correlation      = SLA PW PBX PBC ( 1  4  3  4 0 0)

     celldm(1)=   4.040000  celldm(2)=   0.000000  celldm(3)=   0.000000
     celldm(4)=   0.000000  celldm(5)=   0.000000  celldm(6)=   0.000000

     crystal axes: (cart. coord. in units of alat)
               a(1) = (   1.000000   0.000000   0.000000 )  
               a(2) = (   0.000000   1.000000   0.000000 )  
               a(3) = (   0.000000   0.000000   1.000000 )  

     reciprocal axes: (cart. coord. in units 2 pi/alat)
               b(1) = (  1.000000  0.000000  0.000000 )  
               b(2) = (  0.000000  1.000000  0.000000 )  
               b(3) = (  0.000000  0.000000  1.000000 )  


     PseudoPot. # 1 for Al read from file:
     /rds/homes/b/bxp912/pp/Al.pbe-nl-kjpaw_psl.1.0.0.UPF
     MD5 check sum: 339dbea23cf3ab9a065ad45c0f9085d7
     Pseudo is Projector augmented-wave + core cor, Zval =  3.0
     Generated using "atomic" code by A. Dal Corso v.5.1
     Shape of augmentation charge: PSQ
     Using radial grid of 1135 points,  4 beta functions with: 
                l(1) =   0
                l(2) =   0
                l(3) =   1
                l(4) =   1
     Q(r) pseudized with 0 coefficients 


     atomic species   valence    mass     pseudopotential
        Al             3.00    26.98200     Al( 1.00)

     No symmetry found



   Cartesian axes

     site n.     atom                  positions (alat units)
         1           Al  tau(   1) = (  -0.0001235   0.0000359   0.0002572  )
         2           Al  tau(   2) = (   0.5003009   0.4992819   0.0002658  )
         3           Al  tau(   3) = (   0.4996490   0.0001153   0.5011170  )
         4           Al  tau(   4) = (  -0.0000756   0.5008267   0.5006943  )

     number of k points=    32  Marzari-Vanderbilt smearing, width (Ry)=  0.0200
                       cart. coord. in units 2pi/alat
        k(    1) = (   0.1250000   0.1250000   0.1250000), wk =   0.0625000
        k(    2) = (   0.1250000   0.1250000   0.3750000), wk =   0.0625000
        k(    3) = (   0.1250000   0.3750000   0.3750000), wk =   0.0625000
        k(    4) = (   0.3750000   0.3750000   0.3750000), wk =   0.0625000
        k(    5) = (  -0.1250000  -0.1250000   0.1250000), wk =   0.0625000
        k(    6) = (  -0.1250000   0.1250000  -0.1250000), wk =   0.0625000
        k(    7) = (   0.1250000  -0.1250000  -0.1250000), wk =   0.0625000
        k(    8) = (  -0.1250000  -0.1250000   0.3750000), wk =   0.0625000
        k(    9) = (  -0.1250000   0.1250000  -0.3750000), wk =   0.0625000
        k(   10) = (   0.1250000  -0.1250000  -0.3750000), wk =   0.0625000
        k(   11) = (   0.3750000  -0.1250000   0.1250000), wk =   0.0625000
        k(   12) = (  -0.3750000  -0.1250000  -0.1250000), wk =   0.0625000
        k(   13) = (   0.3750000   0.1250000  -0.1250000), wk =   0.0625000
        k(   14) = (  -0.3750000   0.1250000   0.1250000), wk =   0.0625000
        k(   15) = (  -0.1250000   0.3750000   0.1250000), wk =   0.0625000
        k(   16) = (  -0.1250000  -0.3750000  -0.1250000), wk =   0.0625000
        k(   17) = (   0.1250000   0.3750000  -0.1250000), wk =   0.0625000
        k(   18) = (   0.1250000  -0.3750000   0.1250000), wk =   0.0625000
        k(   19) = (  -0.1250000  -0.3750000   0.3750000), wk =   0.0625000
        k(   20) = (  -0.1250000   0.3750000  -0.3750000), wk =   0.0625000
        k(   21) = (   0.1250000  -0.3750000  -0.3750000), wk =   0.0625000
        k(   22) = (   0.3750000   0.1250000  -0.3750000), wk =   0.0625000
        k(   23) = (  -0.3750000  -0.1250000  -0.3750000), wk =   0.0625000
        k(   24) = (   0.3750000  -0.1250000   0.3750000), wk =   0.0625000
        k(   25) = (  -0.3750000   0.1250000   0.3750000), wk =   0.0625000
        k(   26) = (   0.3750000  -0.3750000   0.1250000), wk =   0.0625000
        k(   27) = (  -0.3750000  -0.3750000  -0.1250000), wk =   0.0625000
        k(   28) = (   0.3750000   0.3750000  -0.1250000), wk =   0.0625000
        k(   29) = (  -0.3750000   0.3750000   0.1250000), wk =   0.0625000
        k(   30) = (  -0.3750000  -0.3750000   0.3750000), wk =   0.0625000
        k(   31) = (  -0.3750000   0.3750000  -0.3750000), wk =   0.0625000
        k(   32) = (   0.3750000  -0.3750000  -0.3750000), wk =   0.0625000

     Dense  grid:     2301 G-vectors     FFT dimensions: (  18,  18,  18)

     Estimated max dynamical RAM per process >       0.53 MB

     Estimated total dynamical RAM >      10.54 MB

     Initial potential from superposition of free atoms

     starting charge   11.99084, renormalised to   12.00000
     Starting wfcs are   16 randomized atomic wfcs
     Checking if some PAW data can be deallocated... 

     total cpu time spent up to now is        0.7 secs

     Self-consistent Calculation

     iteration #  1     ecut=    60.00 Ry     beta= 0.10
     Davidson diagonalization with overlap
     ethr =  1.00E-02,  avg # of iterations =  4.9

     total cpu time spent up to now is        0.9 secs

     total energy              =    -141.65192971 Ry
     Harris-Foulkes estimate   =    -141.80624525 Ry
     estimated scf accuracy    <       0.18121128 Ry

     iteration #  2     ecut=    60.00 Ry     beta= 0.10
     Davidson diagonalization with overlap
     ethr =  1.51E-03,  avg # of iterations =  1.0

     total cpu time spent up to now is        1.0 secs

     total energy              =    -141.16163053 Ry
     Harris-Foulkes estimate   =    -141.65468802 Ry
     estimated scf accuracy    <       0.15199674 Ry

     iteration #  3     ecut=    60.00 Ry     beta= 0.10
     Davidson diagonalization with overlap
     ethr =  1.27E-03,  avg # of iterations =  2.0

     total cpu time spent up to now is        1.1 secs

     total energy              =    -141.24185142 Ry
     Harris-Foulkes estimate   =    -141.25303361 Ry
     estimated scf accuracy    <       0.01537925 Ry

     iteration #  4     ecut=    60.00 Ry     beta= 0.10
     Davidson diagonalization with overlap
     ethr =  1.28E-04,  avg # of iterations =  1.0

     total cpu time spent up to now is        1.2 secs

     total energy              =    -141.24110483 Ry
     Harris-Foulkes estimate   =    -141.24228696 Ry
     estimated scf accuracy    <       0.01223694 Ry

     iteration #  5     ecut=    60.00 Ry     beta= 0.10
     Davidson diagonalization with overlap
     ethr =  1.02E-04,  avg # of iterations =  1.0

     total cpu time spent up to now is        1.3 secs

     total energy              =    -141.24294064 Ry
     Harris-Foulkes estimate   =    -141.24217757 Ry
     estimated scf accuracy    <       0.00073344 Ry

     iteration #  6     ecut=    60.00 Ry     beta= 0.10
     Davidson diagonalization with overlap
     ethr =  6.11E-06,  avg # of iterations =  2.7

     total cpu time spent up to now is        1.4 secs

     total energy              =    -141.24320173 Ry
     Harris-Foulkes estimate   =    -141.24318138 Ry
     estimated scf accuracy    <       0.00012235 Ry

     iteration #  7     ecut=    60.00 Ry     beta= 0.10
     Davidson diagonalization with overlap
     ethr =  1.02E-06,  avg # of iterations =  1.1

     total cpu time spent up to now is        1.5 secs

     total energy              =    -141.24228990 Ry
     Harris-Foulkes estimate   =    -141.24320341 Ry
     estimated scf accuracy    <       0.00010670 Ry

     iteration #  8     ecut=    60.00 Ry     beta= 0.10
     Davidson diagonalization with overlap
     ethr =  8.89E-07,  avg # of iterations =  2.9

     total cpu time spent up to now is        1.6 secs

     total energy              =    -141.24243682 Ry
     Harris-Foulkes estimate   =    -141.24241469 Ry
     estimated scf accuracy    <       0.00006794 Ry

     iteration #  9     ecut=    60.00 Ry     beta= 0.10
     Davidson diagonalization with overlap
     ethr =  5.66E-07,  avg # of iterations =  2.0

     total cpu time spent up to now is        1.7 secs

     total energy              =    -141.24237972 Ry
     Harris-Foulkes estimate   =    -141.24245408 Ry
     estimated scf accuracy    <       0.00001069 Ry

     iteration # 10     ecut=    60.00 Ry     beta= 0.10
     Davidson diagonalization with overlap
     ethr =  8.91E-08,  avg # of iterations =  2.0

     total cpu time spent up to now is        1.8 secs

     total energy              =    -141.24238233 Ry
     Harris-Foulkes estimate   =    -141.24238536 Ry
     estimated scf accuracy    <       0.00000618 Ry

     iteration # 11     ecut=    60.00 Ry     beta= 0.10
     Davidson diagonalization with overlap
     ethr =  5.15E-08,  avg # of iterations =  1.0

     total cpu time spent up to now is        1.9 secs

     total energy              =    -141.24238080 Ry
     Harris-Foulkes estimate   =    -141.24238249 Ry
     estimated scf accuracy    <       0.00000108 Ry

     iteration # 12     ecut=    60.00 Ry     beta= 0.10
     Davidson diagonalization with overlap
     ethr =  8.99E-09,  avg # of iterations =  1.0

     total cpu time spent up to now is        2.0 secs

     End of self-consistent calculation

          k = 0.1250 0.1250 0.1250 (   510 PWs)   bands (ev):

    30.9134  41.4375  41.4566  41.4753  52.4298  52.4501  52.4702  54.9308
    54.9407  54.9507

          k = 0.1250 0.1250 0.3750 (   512 PWs)   bands (ev):

    34.4060  39.0125  43.9424  43.9612  51.8116  51.8289  54.8778  54.8865
    55.6932  61.5180

          k = 0.1250 0.3750 0.3750 (   527 PWs)   bands (ev):

    37.4210  41.6560  41.6929  44.5483  50.4942  52.9068  52.9560  57.0470
    57.5689  60.7350

          k = 0.3750 0.3750 0.3750 (   519 PWs)   bands (ev):

    39.8867  43.9755  44.0135  44.0512  47.7750  47.8165  47.8580  51.6506
    66.9740  66.9785

          k =-0.1250-0.1250 0.1250 (   510 PWs)   bands (ev):

    30.9134  41.4415  41.4565  41.4714  52.4341  52.4500  52.4660  54.9329
    54.9407  54.9486

          k =-0.1250 0.1250-0.1250 (   510 PWs)   bands (ev):

    30.9134  41.4454  41.4565  41.4675  52.4382  52.4501  52.4618  54.9349
    54.9407  54.9466

          k = 0.1250-0.1250-0.1250 (   510 PWs)   bands (ev):

    30.9134  41.4433  41.4565  41.4695  52.4360  52.4501  52.4641  54.9338
    54.9407  54.9476

          k =-0.1250-0.1250 0.3750 (   512 PWs)   bands (ev):

    34.4059  39.0125  43.9423  43.9612  51.8116  51.8289  54.8778  54.8865
    55.6929  61.5179

          k =-0.1250 0.1250-0.3750 (   512 PWs)   bands (ev):

    34.4059  39.0125  43.9475  43.9561  51.8163  51.8242  54.8802  54.8841
    55.6930  61.5178

          k = 0.1250-0.1250-0.3750 (   512 PWs)   bands (ev):

    34.4059  39.0125  43.9475  43.9561  51.8162  51.8242  54.8801  54.8841
    55.6932  61.5177

          k = 0.3750-0.1250 0.1250 (   512 PWs)   bands (ev):

    34.4060  39.0124  43.9474  43.9562  51.8161  51.8241  54.8803  54.8843
    55.6932  61.5180

          k =-0.3750-0.1250-0.1250 (   512 PWs)   bands (ev):

    34.4060  39.0124  43.9438  43.9598  51.8130  51.8277  54.8781  54.8855
    55.6938  61.5180

          k = 0.3750 0.1250-0.1250 (   512 PWs)   bands (ev):

    34.4060  39.0124  43.9475  43.9562  51.8160  51.8241  54.8803  54.8843
    55.6932  61.5179

          k =-0.3750 0.1250 0.1250 (   512 PWs)   bands (ev):

    34.4060  39.0124  43.9438  43.9598  51.8130  51.8277  54.8782  54.8856
    55.6934  61.5180

          k =-0.1250 0.3750 0.1250 (   512 PWs)   bands (ev):

    34.4060  39.0123  43.9508  43.9532  51.8192  51.8214  54.8815  54.8826
    55.6931  61.5180

          k =-0.1250-0.3750-0.1250 (   512 PWs)   bands (ev):

    34.4060  39.0123  43.9473  43.9567  51.8158  51.8245  54.8800  54.8843
    55.6932  61.5180

          k = 0.1250 0.3750-0.1250 (   512 PWs)   bands (ev):

    34.4060  39.0123  43.9508  43.9532  51.8191  51.8213  54.8813  54.8825
    55.6935  61.5178

          k = 0.1250-0.3750 0.1250 (   512 PWs)   bands (ev):

    34.4060  39.0124  43.9472  43.9566  51.8159  51.8245  54.8799  54.8843
    55.6931  61.5180

          k =-0.1250-0.3750 0.3750 (   527 PWs)   bands (ev):

    37.4210  41.6644  41.6846  44.5482  50.4944  52.9179  52.9447  57.0464
    57.5698  60.7354

          k =-0.1250 0.3750-0.3750 (   527 PWs)   bands (ev):

    37.4210  41.6644  41.6846  44.5482  50.4943  52.9179  52.9447  57.0460
    57.5703  60.7387

          k = 0.1250-0.3750-0.3750 (   527 PWs)   bands (ev):

    37.4210  41.6560  41.6929  44.5484  50.4942  52.9068  52.9560  57.0466
    57.5691  60.7337

          k = 0.3750 0.1250-0.3750 (   527 PWs)   bands (ev):

    37.4210  41.6716  41.6772  44.5482  50.4942  52.9278  52.9352  57.0471
    57.5691  60.7379

          k =-0.3750-0.1250-0.3750 (   527 PWs)   bands (ev):

    37.4210  41.6636  41.6853  44.5481  50.4944  52.9171  52.9459  57.0472
    57.5687  60.7356

          k = 0.3750-0.1250 0.3750 (   527 PWs)   bands (ev):

    37.4210  41.6636  41.6853  44.5482  50.4943  52.9170  52.9458  57.0474
    57.5688  60.7358

          k =-0.3750 0.1250 0.3750 (   527 PWs)   bands (ev):

    37.4210  41.6716  41.6772  44.5482  50.4943  52.9278  52.9352  57.0467
    57.5691  60.7380

          k = 0.3750-0.3750 0.1250 (   527 PWs)   bands (ev):

    37.4211  41.6645  41.6844  44.5483  50.4940  52.9181  52.9446  57.0473
    57.5689  60.7356

          k =-0.3750-0.3750-0.1250 (   527 PWs)   bands (ev):

    37.4211  41.6528  41.6961  44.5482  50.4944  52.9025  52.9602  57.0452
    57.5708  60.7342

          k = 0.3750 0.3750-0.1250 (   527 PWs)   bands (ev):

    37.4211  41.6528  41.6962  44.5482  50.4942  52.9024  52.9602  57.0473
    57.5688  60.7335

          k =-0.3750 0.3750 0.1250 (   527 PWs)   bands (ev):

    37.4211  41.6645  41.6844  44.5482  50.4943  52.9182  52.9447  57.0427
    57.5734  60.7356

          k =-0.3750-0.3750 0.3750 (   519 PWs)   bands (ev):

    39.8866  43.9834  44.0135  44.0433  47.7837  47.8164  47.8493  51.6507
    66.9741  66.9774

          k =-0.3750 0.3750-0.3750 (   519 PWs)   bands (ev):

    39.8866  43.9912  44.0135  44.0355  47.7922  47.8165  47.8408  51.6508
    66.9751  66.9784

          k = 0.3750-0.3750-0.3750 (   519 PWs)   bands (ev):

    39.8866  43.9871  44.0134  44.0396  47.7878  47.8165  47.8454  51.6506
    66.9757  66.9785

     the Fermi energy is    52.6616 ev

!    total energy              =    -141.24238034 Ry
     Harris-Foulkes estimate   =    -141.24238086 Ry
     estimated scf accuracy    <       0.00000060 Ry

     total all-electron energy =     -1925.813508 Ry

     The total energy is the sum of the following terms:

     one-electron contribution =      58.67365261 Ry
     hartree contribution      =       0.21197603 Ry
     xc contribution           =     -17.28551222 Ry
     ewald contribution        =     -40.85514931 Ry
     one-center paw contrib.   =    -141.98671184 Ry
     smearing contrib. (-TS)   =      -0.00063560 Ry

     convergence has been achieved in  12 iterations

     Forces acting on atoms (cartesian axes, Ry/au):

     atom    1 type  1   force =     0.00200455   -0.00040526    0.01644582
     atom    2 type  1   force =    -0.00324674    0.00370179    0.01641947
     atom    3 type  1   force =    -0.00055820   -0.00068258   -0.01731658
     atom    4 type  1   force =     0.00180039   -0.00261395   -0.01554871

     Total force =     0.033481     Total SCF correction =     0.000006


     Computing stress (Cartesian axis) and pressure

          total   stress  (Ry/bohr**3)                   (kbar)     P=59671.94
   0.40564705   0.00000111   0.00000089      59672.73      0.16      0.13
   0.00000111   0.40563576  -0.00000106          0.16  59671.07     -0.16
   0.00000089  -0.00000106   0.40564212          0.13     -0.16  59672.01


     Writing output data file fe_scf_fcc_2.save/
 
     init_run     :      0.09s CPU      0.13s WALL (       1 calls)
     electrons    :      1.17s CPU      1.32s WALL (       1 calls)
     forces       :      0.01s CPU      0.01s WALL (       1 calls)
     stress       :      0.03s CPU      0.03s WALL (       1 calls)

     Called by init_run:
     wfcinit      :      0.04s CPU      0.05s WALL (       1 calls)
     potinit      :      0.01s CPU      0.02s WALL (       1 calls)
     hinit0       :      0.02s CPU      0.06s WALL (       1 calls)

     Called by electrons:
     c_bands      :      0.87s CPU      0.99s WALL (      12 calls)
     sum_band     :      0.14s CPU      0.16s WALL (      12 calls)
     v_of_rho     :      0.01s CPU      0.01s WALL (      13 calls)
     newd         :      0.00s CPU      0.00s WALL (      13 calls)
     PAW_pot      :      0.15s CPU      0.17s WALL (      13 calls)
     mix_rho      :      0.00s CPU      0.00s WALL (      12 calls)

     Called by c_bands:
     init_us_2    :      0.01s CPU      0.01s WALL (     864 calls)
     cegterg      :      0.84s CPU      0.95s WALL (     384 calls)

     Called by sum_band:
     sum_band:bec :      0.00s CPU      0.00s WALL (     384 calls)
     addusdens    :      0.00s CPU      0.00s WALL (      12 calls)

     Called by *egterg:
     h_psi        :      0.60s CPU      0.68s WALL (    1136 calls)
     s_psi        :      0.01s CPU      0.01s WALL (    1136 calls)
     g_psi        :      0.00s CPU      0.00s WALL (     720 calls)
     cdiaghg      :      0.17s CPU      0.19s WALL (    1104 calls)

     Called by h_psi:
     h_psi:pot    :      0.59s CPU      0.67s WALL (    1136 calls)
     h_psi:calbec :      0.06s CPU      0.07s WALL (    1136 calls)
     vloc_psi     :      0.52s CPU      0.59s WALL (    1136 calls)
     add_vuspsi   :      0.01s CPU      0.01s WALL (    1136 calls)

     General routines
     calbec       :      0.08s CPU      0.09s WALL (    1680 calls)
     fft          :      0.03s CPU      0.06s WALL (     169 calls)
     ffts         :      0.00s CPU      0.00s WALL (      12 calls)
     fftw         :      0.59s CPU      0.67s WALL (   23764 calls)
 
     Parallel routines
     fft_scatt_xy :      0.04s CPU      0.04s WALL (   23945 calls)
     fft_scatt_yz :      0.47s CPU      0.55s WALL (   23945 calls)
 
     PWSCF        :     1.84s CPU         2.32s WALL

 
   This run was terminated on:  19: 5:19  22Oct2019            

=------------------------------------------------------------------------------=
   JOB DONE.
=------------------------------------------------------------------------------=
