
     Program PWSCF v.6.3 starts on 20Oct2019 at  2:53: 3 

     This program is part of the open-source Quantum ESPRESSO suite
     for quantum simulation of materials; please cite
         "P. Giannozzi et al., J. Phys.:Condens. Matter 21 395502 (2009);
         "P. Giannozzi et al., J. Phys.:Condens. Matter 29 465901 (2017);
          URL http://www.quantum-espresso.org", 
     in publications or presentations arising from this work. More details at
     http://www.quantum-espresso.org/quote

     Parallel version (MPI), running on     1 processors

     MPI processes distributed on     1 nodes
     Reading input from /cloud/Code/python/py_pwscf_converge/src/example/wd/runpwscf/file_10121.in
Warning: card &IONS ignored
Warning: card ION_DYNAMICS = 'BFGS', ignored
Warning: card / ignored
Warning: card &CELL ignored
Warning: card CELL_DYNAMICS = 'BFGS', ignored
Warning: card CELL_FACTOR = 2.0, ignored
Warning: card PRESS = 0.0, ignored
Warning: card / ignored

     Current dimensions of program PWSCF are:
     Max number of different atomic species (ntypx) = 10
     Max number of k-points (npk) =  40000
     Max angular momentum in pseudopotentials (lmaxx) =  3
               file Al.pbe-nl-kjpaw_psl.1.0.0.UPF: wavefunction(s)  3S 3P renormalized

     Subspace diagonalization in iterative solution of the eigenvalue problem:
     a serial algorithm will be used


     G-vector sticks info
     --------------------
     sticks:   dense  smooth     PW     G-vecs:    dense   smooth      PW
     Sum         305     305    109                 4139     4139     847



     bravais-lattice index     =            0
     lattice parameter (alat)  =       4.0400  a.u.
     unit-cell volume          =      65.9393 (a.u.)^3
     number of atoms/cell      =            4
     number of atomic types    =            1
     number of electrons       =        12.00
     number of Kohn-Sham states=           10
     kinetic-energy cutoff     =      65.0000  Ry
     charge density cutoff     =     240.0000  Ry
     convergence threshold     =      1.0E-06
     mixing beta               =       0.1000
     number of iterations used =           10  TF        mixing
     Exchange-correlation      = SLA PW PBX PBC ( 1  4  3  4 0 0)

     celldm(1)=   4.040000  celldm(2)=   0.000000  celldm(3)=   0.000000
     celldm(4)=   0.000000  celldm(5)=   0.000000  celldm(6)=   0.000000

     crystal axes: (cart. coord. in units of alat)
               a(1) = (   1.000000   0.000000   0.000000 )  
               a(2) = (   0.000000   1.000000   0.000000 )  
               a(3) = (   0.000000   0.000000   1.000000 )  

     reciprocal axes: (cart. coord. in units 2 pi/alat)
               b(1) = (  1.000000  0.000000  0.000000 )  
               b(2) = (  0.000000  1.000000  0.000000 )  
               b(3) = (  0.000000  0.000000  1.000000 )  


     PseudoPot. # 1 for Al read from file:
     /opt/pp/Al.pbe-nl-kjpaw_psl.1.0.0.UPF
     MD5 check sum: 1b67f78b73fe58c7924490f171ce8a1e
     Pseudo is Projector augmented-wave + core cor, Zval =  3.0
     Generated using "atomic" code by A. Dal Corso v.6.3
     Shape of augmentation charge: PSQ
     Using radial grid of 1135 points,  4 beta functions with: 
                l(1) =   0
                l(2) =   0
                l(3) =   1
                l(4) =   1
     Q(r) pseudized with 0 coefficients 


     atomic species   valence    mass     pseudopotential
        Al             3.00    26.98200     Al( 1.00)

     No symmetry found



   Cartesian axes

     site n.     atom                  positions (alat units)
         1           Al  tau(   1) = (  -0.0001235   0.0000359   0.0002572  )
         2           Al  tau(   2) = (   0.5003009   0.4992819   0.0002658  )
         3           Al  tau(   3) = (   0.4996490   0.0001153   0.5011170  )
         4           Al  tau(   4) = (  -0.0000756   0.5008267   0.5006943  )

     number of k points=    32  Marzari-Vanderbilt smearing, width (Ry)=  0.0200
                       cart. coord. in units 2pi/alat
        k(    1) = (   0.1250000   0.1250000   0.1250000), wk =   0.0625000
        k(    2) = (   0.1250000   0.1250000   0.3750000), wk =   0.0625000
        k(    3) = (   0.1250000   0.3750000   0.3750000), wk =   0.0625000
        k(    4) = (   0.3750000   0.3750000   0.3750000), wk =   0.0625000
        k(    5) = (  -0.1250000  -0.1250000   0.1250000), wk =   0.0625000
        k(    6) = (  -0.1250000   0.1250000  -0.1250000), wk =   0.0625000
        k(    7) = (   0.1250000  -0.1250000  -0.1250000), wk =   0.0625000
        k(    8) = (  -0.1250000  -0.1250000   0.3750000), wk =   0.0625000
        k(    9) = (  -0.1250000   0.1250000  -0.3750000), wk =   0.0625000
        k(   10) = (   0.1250000  -0.1250000  -0.3750000), wk =   0.0625000
        k(   11) = (   0.3750000  -0.1250000   0.1250000), wk =   0.0625000
        k(   12) = (  -0.3750000  -0.1250000  -0.1250000), wk =   0.0625000
        k(   13) = (   0.3750000   0.1250000  -0.1250000), wk =   0.0625000
        k(   14) = (  -0.3750000   0.1250000   0.1250000), wk =   0.0625000
        k(   15) = (  -0.1250000   0.3750000   0.1250000), wk =   0.0625000
        k(   16) = (  -0.1250000  -0.3750000  -0.1250000), wk =   0.0625000
        k(   17) = (   0.1250000   0.3750000  -0.1250000), wk =   0.0625000
        k(   18) = (   0.1250000  -0.3750000   0.1250000), wk =   0.0625000
        k(   19) = (  -0.1250000  -0.3750000   0.3750000), wk =   0.0625000
        k(   20) = (  -0.1250000   0.3750000  -0.3750000), wk =   0.0625000
        k(   21) = (   0.1250000  -0.3750000  -0.3750000), wk =   0.0625000
        k(   22) = (   0.3750000   0.1250000  -0.3750000), wk =   0.0625000
        k(   23) = (  -0.3750000  -0.1250000  -0.3750000), wk =   0.0625000
        k(   24) = (   0.3750000  -0.1250000   0.3750000), wk =   0.0625000
        k(   25) = (  -0.3750000   0.1250000   0.3750000), wk =   0.0625000
        k(   26) = (   0.3750000  -0.3750000   0.1250000), wk =   0.0625000
        k(   27) = (  -0.3750000  -0.3750000  -0.1250000), wk =   0.0625000
        k(   28) = (   0.3750000   0.3750000  -0.1250000), wk =   0.0625000
        k(   29) = (  -0.3750000   0.3750000   0.1250000), wk =   0.0625000
        k(   30) = (  -0.3750000  -0.3750000   0.3750000), wk =   0.0625000
        k(   31) = (  -0.3750000   0.3750000  -0.3750000), wk =   0.0625000
        k(   32) = (   0.3750000  -0.3750000  -0.3750000), wk =   0.0625000

     Dense  grid:     4139 G-vectors     FFT dimensions: (  20,  20,  20)

     Estimated max dynamical RAM per process >       9.36 MB

     Initial potential from superposition of free atoms

     starting charge   11.99084, renormalised to   12.00000
     Starting wfcs are   16 randomized atomic wfcs
     Checking if some PAW data can be deallocated... 

     total cpu time spent up to now is        1.5 secs

     Self-consistent Calculation

     iteration #  1     ecut=    65.00 Ry     beta= 0.10
     Davidson diagonalization with overlap
     ethr =  1.00E-02,  avg # of iterations =  4.9

     total cpu time spent up to now is        2.3 secs

     total energy              =    -141.65257089 Ry
     Harris-Foulkes estimate   =    -141.80685436 Ry
     estimated scf accuracy    <       0.18104017 Ry

     iteration #  2     ecut=    65.00 Ry     beta= 0.10
     Davidson diagonalization with overlap
     ethr =  1.51E-03,  avg # of iterations =  1.0

     total cpu time spent up to now is        2.9 secs

     total energy              =    -141.16256333 Ry
     Harris-Foulkes estimate   =    -141.65506197 Ry
     estimated scf accuracy    <       0.15209172 Ry

     iteration #  3     ecut=    65.00 Ry     beta= 0.10
     Davidson diagonalization with overlap
     ethr =  1.27E-03,  avg # of iterations =  2.0

     total cpu time spent up to now is        3.4 secs

     total energy              =    -141.24382146 Ry
     Harris-Foulkes estimate   =    -141.25668414 Ry
     estimated scf accuracy    <       0.01579518 Ry

     iteration #  4     ecut=    65.00 Ry     beta= 0.10
     Davidson diagonalization with overlap
     ethr =  1.32E-04,  avg # of iterations =  1.0

     total cpu time spent up to now is        3.9 secs

     total energy              =    -141.24127358 Ry
     Harris-Foulkes estimate   =    -141.24426128 Ry
     estimated scf accuracy    <       0.01255289 Ry

     iteration #  5     ecut=    65.00 Ry     beta= 0.10
     Davidson diagonalization with overlap
     ethr =  1.05E-04,  avg # of iterations =  1.0

     total cpu time spent up to now is        4.4 secs

     total energy              =    -141.24332862 Ry
     Harris-Foulkes estimate   =    -141.24235823 Ry
     estimated scf accuracy    <       0.00074174 Ry

     iteration #  6     ecut=    65.00 Ry     beta= 0.10
     Davidson diagonalization with overlap
     ethr =  6.18E-06,  avg # of iterations =  3.1

     total cpu time spent up to now is        5.1 secs

     total energy              =    -141.24356497 Ry
     Harris-Foulkes estimate   =    -141.24360229 Ry
     estimated scf accuracy    <       0.00008950 Ry

     iteration #  7     ecut=    65.00 Ry     beta= 0.10
     Davidson diagonalization with overlap
     ethr =  7.46E-07,  avg # of iterations =  1.1

     total cpu time spent up to now is        5.6 secs

     total energy              =    -141.24256264 Ry
     Harris-Foulkes estimate   =    -141.24356602 Ry
     estimated scf accuracy    <       0.00007353 Ry

     iteration #  8     ecut=    65.00 Ry     beta= 0.10
     Davidson diagonalization with overlap
     ethr =  6.13E-07,  avg # of iterations =  2.8

     total cpu time spent up to now is        6.1 secs

     total energy              =    -141.24264922 Ry
     Harris-Foulkes estimate   =    -141.24262987 Ry
     estimated scf accuracy    <       0.00000667 Ry

     iteration #  9     ecut=    65.00 Ry     beta= 0.10
     Davidson diagonalization with overlap
     ethr =  5.56E-08,  avg # of iterations =  1.2

     total cpu time spent up to now is        6.6 secs

     total energy              =    -141.24256397 Ry
     Harris-Foulkes estimate   =    -141.24264960 Ry
     estimated scf accuracy    <       0.00000783 Ry

     iteration # 10     ecut=    65.00 Ry     beta= 0.10
     Davidson diagonalization with overlap
     ethr =  5.56E-08,  avg # of iterations =  3.0

     total cpu time spent up to now is        7.3 secs

     total energy              =    -141.24257344 Ry
     Harris-Foulkes estimate   =    -141.24257405 Ry
     estimated scf accuracy    <       0.00000151 Ry

     iteration # 11     ecut=    65.00 Ry     beta= 0.10
     Davidson diagonalization with overlap
     ethr =  1.26E-08,  avg # of iterations =  1.0

     total cpu time spent up to now is        7.8 secs

     total energy              =    -141.24257326 Ry
     Harris-Foulkes estimate   =    -141.24257347 Ry
     estimated scf accuracy    <       0.00000132 Ry

     iteration # 12     ecut=    65.00 Ry     beta= 0.10
     Davidson diagonalization with overlap
     ethr =  1.10E-08,  avg # of iterations =  1.0

     total cpu time spent up to now is        8.3 secs

     End of self-consistent calculation

          k = 0.1250 0.1250 0.1250 (   585 PWs)   bands (ev):

    30.9171  41.4387  41.4578  41.4765  52.4299  52.4502  52.4703  54.9344
    54.9442  54.9542

          k = 0.1250 0.1250 0.3750 (   579 PWs)   bands (ev):

    34.4099  39.0160  43.9443  43.9631  51.8133  51.8306  54.8797  54.8883
    55.6931  61.5182

          k = 0.1250 0.3750 0.3750 (   589 PWs)   bands (ev):

    37.4250  41.6597  41.6966  44.5517  50.4957  52.9082  52.9573  57.0478
    57.5698  60.7327

          k = 0.3750 0.3750 0.3750 (   591 PWs)   bands (ev):

    39.8904  43.9790  44.0170  44.0548  47.7769  47.8184  47.8599  51.6522
    66.9751  66.9794

          k =-0.1250-0.1250 0.1250 (   585 PWs)   bands (ev):

    30.9171  41.4426  41.4577  41.4725  52.4342  52.4501  52.4661  54.9365
    54.9443  54.9521

          k =-0.1250 0.1250-0.1250 (   585 PWs)   bands (ev):

    30.9171  41.4465  41.4577  41.4686  52.4383  52.4501  52.4619  54.9385
    54.9443  54.9501

          k = 0.1250-0.1250-0.1250 (   585 PWs)   bands (ev):

    30.9171  41.4445  41.4577  41.4707  52.4361  52.4502  52.4641  54.9374
    54.9443  54.9512

          k =-0.1250-0.1250 0.3750 (   579 PWs)   bands (ev):

    34.4099  39.0161  43.9442  43.9630  51.8134  51.8306  54.8797  54.8884
    55.6929  61.5184

          k =-0.1250 0.1250-0.3750 (   579 PWs)   bands (ev):

    34.4099  39.0160  43.9493  43.9580  51.8180  51.8259  54.8821  54.8860
    55.6930  61.5184

          k = 0.1250-0.1250-0.3750 (   579 PWs)   bands (ev):

    34.4099  39.0160  43.9494  43.9580  51.8180  51.8259  54.8820  54.8860
    55.6932  61.5181

          k = 0.3750-0.1250 0.1250 (   579 PWs)   bands (ev):

    34.4099  39.0159  43.9493  43.9581  51.8178  51.8258  54.8822  54.8862
    55.6931  61.5182

          k =-0.3750-0.1250-0.1250 (   579 PWs)   bands (ev):

    34.4099  39.0159  43.9457  43.9617  51.8147  51.8294  54.8800  54.8874
    55.6937  61.5184

          k = 0.3750 0.1250-0.1250 (   579 PWs)   bands (ev):

    34.4099  39.0159  43.9493  43.9581  51.8178  51.8258  54.8822  54.8862
    55.6932  61.5184

          k =-0.3750 0.1250 0.1250 (   579 PWs)   bands (ev):

    34.4099  39.0159  43.9457  43.9617  51.8148  51.8295  54.8801  54.8874
    55.6934  61.5184

          k =-0.1250 0.3750 0.1250 (   579 PWs)   bands (ev):

    34.4099  39.0158  43.9526  43.9551  51.8209  51.8231  54.8834  54.8845
    55.6931  61.5184

          k =-0.1250-0.3750-0.1250 (   579 PWs)   bands (ev):

    34.4099  39.0158  43.9492  43.9586  51.8176  51.8262  54.8818  54.8862
    55.6932  61.5185

          k = 0.1250 0.3750-0.1250 (   579 PWs)   bands (ev):

    34.4099  39.0158  43.9526  43.9551  51.8208  51.8231  54.8832  54.8844
    55.6934  61.5183

          k = 0.1250-0.3750 0.1250 (   579 PWs)   bands (ev):

    34.4099  39.0159  43.9491  43.9585  51.8176  51.8262  54.8818  54.8862
    55.6930  61.5184

          k =-0.1250-0.3750 0.3750 (   589 PWs)   bands (ev):

    37.4250  41.6681  41.6883  44.5515  50.4959  52.9193  52.9461  57.0472
    57.5707  60.7358

          k =-0.1250 0.3750-0.3750 (   589 PWs)   bands (ev):

    37.4250  41.6682  41.6883  44.5515  50.4958  52.9192  52.9460  57.0468
    57.5712  60.7390

          k = 0.1250-0.3750-0.3750 (   589 PWs)   bands (ev):

    37.4250  41.6597  41.6966  44.5517  50.4957  52.9082  52.9573  57.0474
    57.5701  60.7328

          k = 0.3750 0.1250-0.3750 (   589 PWs)   bands (ev):

    37.4250  41.6753  41.6809  44.5515  50.4957  52.9291  52.9365  57.0479
    57.5700  60.7375

          k =-0.3750-0.1250-0.3750 (   589 PWs)   bands (ev):

    37.4250  41.6673  41.6890  44.5514  50.4959  52.9184  52.9473  57.0481
    57.5696  60.7372

          k = 0.3750-0.1250 0.3750 (   589 PWs)   bands (ev):

    37.4250  41.6673  41.6890  44.5515  50.4957  52.9183  52.9472  57.0482
    57.5698  60.7362

          k =-0.3750 0.1250 0.3750 (   589 PWs)   bands (ev):

    37.4250  41.6754  41.6809  44.5515  50.4958  52.9292  52.9366  57.0475
    57.5700  60.7384

          k = 0.3750-0.3750 0.1250 (   589 PWs)   bands (ev):

    37.4251  41.6682  41.6881  44.5516  50.4955  52.9194  52.9459  57.0481
    57.5699  60.7391

          k =-0.3750-0.3750-0.1250 (   589 PWs)   bands (ev):

    37.4251  41.6565  41.6999  44.5515  50.4959  52.9038  52.9616  57.0460
    57.5718  60.7317

          k = 0.3750 0.3750-0.1250 (   589 PWs)   bands (ev):

    37.4251  41.6565  41.6999  44.5515  50.4957  52.9038  52.9615  57.0481
    57.5698  60.7365

          k =-0.3750 0.3750 0.1250 (   589 PWs)   bands (ev):

    37.4251  41.6682  41.6881  44.5516  50.4958  52.9196  52.9460  57.0435
    57.5743  60.7357

          k =-0.3750-0.3750 0.3750 (   591 PWs)   bands (ev):

    39.8903  43.9870  44.0170  44.0468  47.7856  47.8183  47.8512  51.6523
    66.9764  66.9779

          k =-0.3750 0.3750-0.3750 (   591 PWs)   bands (ev):

    39.8903  43.9947  44.0170  44.0390  47.7941  47.8184  47.8427  51.6524
    66.9746  66.9779

          k = 0.3750-0.3750-0.3750 (   591 PWs)   bands (ev):

    39.8903  43.9906  44.0169  44.0432  47.7897  47.8184  47.8473  51.6522
    66.9744  66.9787

     the Fermi energy is    52.6621 ev

!    total energy              =    -141.24257270 Ry
     Harris-Foulkes estimate   =    -141.24257328 Ry
     estimated scf accuracy    <       0.00000023 Ry

     total all-electron energy =     -1925.813695 Ry

     The total energy is the sum of the following terms:

     one-electron contribution =      58.67278297 Ry
     hartree contribution      =       0.21194853 Ry
     xc contribution           =     -17.28526500 Ry
     ewald contribution        =     -40.85514763 Ry
     one-center paw contrib.   =    -141.98627688 Ry
     smearing contrib. (-TS)   =      -0.00061470 Ry

     convergence has been achieved in  12 iterations

     Forces acting on atoms (cartesian axes, Ry/au):

     atom    1 type  1   force =     0.00200333   -0.00038948    0.01643694
     atom    2 type  1   force =    -0.00324397    0.00373067    0.01640834
     atom    3 type  1   force =    -0.00055603   -0.00070087   -0.01729841
     atom    4 type  1   force =     0.00179667   -0.00264032   -0.01554687

     Total force =     0.033466     Total SCF correction =     0.000004


     Computing stress (Cartesian axis) and pressure

          total   stress  (Ry/bohr**3)                   (kbar)     P=59669.89
   0.40563303   0.00000114   0.00000096      59670.67      0.17      0.14
   0.00000114   0.40562192  -0.00000111          0.17  59669.03     -0.16
   0.00000096  -0.00000111   0.40562825          0.14     -0.16  59669.97


     Writing output data file fe_scf_fcc_2.save/

     init_run     :      0.70s CPU      0.73s WALL (       1 calls)
     electrons    :      6.62s CPU      6.73s WALL (       1 calls)
     forces       :      0.06s CPU      0.06s WALL (       1 calls)
     stress       :      0.18s CPU      0.18s WALL (       1 calls)

     Called by init_run:
     wfcinit      :      0.17s CPU      0.18s WALL (       1 calls)
     potinit      :      0.26s CPU      0.27s WALL (       1 calls)
     hinit0       :      0.26s CPU      0.26s WALL (       1 calls)

     Called by electrons:
     c_bands      :      2.94s CPU      3.00s WALL (      12 calls)
     sum_band     :      0.52s CPU      0.53s WALL (      12 calls)
     v_of_rho     :      0.08s CPU      0.07s WALL (      13 calls)
     newd         :      0.08s CPU      0.08s WALL (      13 calls)
     PAW_pot      :      3.24s CPU      3.29s WALL (      13 calls)
     mix_rho      :      0.01s CPU      0.01s WALL (      12 calls)

     Called by c_bands:
     init_us_2    :      0.17s CPU      0.17s WALL (     864 calls)
     cegterg      :      2.68s CPU      2.74s WALL (     384 calls)

     Called by sum_band:
     sum_band:bec :      0.00s CPU      0.00s WALL (     384 calls)
     addusdens    :      0.05s CPU      0.05s WALL (      12 calls)

     Called by *egterg:
     h_psi        :      1.96s CPU      2.05s WALL (    1155 calls)
     s_psi        :      0.13s CPU      0.16s WALL (    1155 calls)
     g_psi        :      0.03s CPU      0.02s WALL (     739 calls)
     cdiaghg      :      0.24s CPU      0.22s WALL (    1123 calls)

     Called by h_psi:
     h_psi:pot    :      1.94s CPU      2.03s WALL (    1155 calls)
     h_psi:calbec :      0.17s CPU      0.17s WALL (    1155 calls)
     vloc_psi     :      1.60s CPU      1.69s WALL (    1155 calls)
     add_vuspsi   :      0.16s CPU      0.17s WALL (    1155 calls)

     General routines
     calbec       :      0.25s CPU      0.25s WALL (    1699 calls)
     fft          :      0.01s CPU      0.02s WALL (     169 calls)
     ffts         :      0.00s CPU      0.00s WALL (      12 calls)
     fftw         :      1.64s CPU      1.71s WALL (   23888 calls)

     Parallel routines

     PWSCF        :     8.36s CPU         8.53s WALL


   This run was terminated on:   2:53:12  20Oct2019            

=------------------------------------------------------------------------------=
   JOB DONE.
=------------------------------------------------------------------------------=
