
     Program PWSCF v.6.3 starts on 22Oct2019 at 19: 9:22 

     This program is part of the open-source Quantum ESPRESSO suite
     for quantum simulation of materials; please cite
         "P. Giannozzi et al., J. Phys.:Condens. Matter 21 395502 (2009);
         "P. Giannozzi et al., J. Phys.:Condens. Matter 29 465901 (2017);
          URL http://www.quantum-espresso.org", 
     in publications or presentations arising from this work. More details at
     http://www.quantum-espresso.org/quote

     Parallel version (MPI & OpenMP), running on      20 processor cores
     Number of MPI processes:                20
     Threads/MPI process:                     1

     MPI processes distributed on     1 nodes
     R & G space division:  proc/nbgrp/npool/nimage =      20
     Reading input from /rds/homes/b/bxp912/jobs/20191022_test/wd/runpwscf/file_10200.in
Warning: card &IONS ignored
Warning: card ION_DYNAMICS = 'BFGS', ignored
Warning: card / ignored
Warning: card &CELL ignored
Warning: card CELL_DYNAMICS = 'BFGS', ignored
Warning: card CELL_FACTOR = 2.0, ignored
Warning: card PRESS = 0.0, ignored
Warning: card / ignored

     Current dimensions of program PWSCF are:
     Max number of different atomic species (ntypx) = 10
     Max number of k-points (npk) =  40000
     Max angular momentum in pseudopotentials (lmaxx) =  3
     Message from routine read_upf::
     Pseudo file /rds/homes/b/bxp912/pp/Al.pbe-nl-kjpaw_psl.1.0.0.UPF has been successfully fixed on the fly.
To avoid this message in the future you can permanently fix 
 your pseudo files following instructions given in: 
https://gitlab.com/QEF/q-e/blob/master/upftools/how_to_fix_upf.md
               file Al.pbe-nl-kjpaw_psl.1.0.0.UPF: wavefunction(s)  3S 3P renormalized

     Subspace diagonalization in iterative solution of the eigenvalue problem:
     a serial algorithm will be used

 
     Parallelization info
     --------------------
     sticks:   dense  smooth     PW     G-vecs:    dense   smooth      PW
     Min          17       7      2                  257       69      14
     Max          18       8      4                  262       74      17
     Sum         357     149     57                 5185     1419     305
 


     bravais-lattice index     =            0
     lattice parameter (alat)  =       4.0400  a.u.
     unit-cell volume          =      65.9393 (a.u.)^3
     number of atoms/cell      =            4
     number of atomic types    =            1
     number of electrons       =        12.00
     number of Kohn-Sham states=           10
     kinetic-energy cutoff     =      30.0000  Ry
     charge density cutoff     =     280.0000  Ry
     convergence threshold     =      1.0E-06
     mixing beta               =       0.1000
     number of iterations used =           10  TF        mixing
     Exchange-correlation      = SLA PW PBX PBC ( 1  4  3  4 0 0)

     celldm(1)=   4.040000  celldm(2)=   0.000000  celldm(3)=   0.000000
     celldm(4)=   0.000000  celldm(5)=   0.000000  celldm(6)=   0.000000

     crystal axes: (cart. coord. in units of alat)
               a(1) = (   1.000000   0.000000   0.000000 )  
               a(2) = (   0.000000   1.000000   0.000000 )  
               a(3) = (   0.000000   0.000000   1.000000 )  

     reciprocal axes: (cart. coord. in units 2 pi/alat)
               b(1) = (  1.000000  0.000000  0.000000 )  
               b(2) = (  0.000000  1.000000  0.000000 )  
               b(3) = (  0.000000  0.000000  1.000000 )  


     PseudoPot. # 1 for Al read from file:
     /rds/homes/b/bxp912/pp/Al.pbe-nl-kjpaw_psl.1.0.0.UPF
     MD5 check sum: 339dbea23cf3ab9a065ad45c0f9085d7
     Pseudo is Projector augmented-wave + core cor, Zval =  3.0
     Generated using "atomic" code by A. Dal Corso v.5.1
     Shape of augmentation charge: PSQ
     Using radial grid of 1135 points,  4 beta functions with: 
                l(1) =   0
                l(2) =   0
                l(3) =   1
                l(4) =   1
     Q(r) pseudized with 0 coefficients 


     atomic species   valence    mass     pseudopotential
        Al             3.00    26.98200     Al( 1.00)

     No symmetry found



   Cartesian axes

     site n.     atom                  positions (alat units)
         1           Al  tau(   1) = (  -0.0001235   0.0000359   0.0002572  )
         2           Al  tau(   2) = (   0.5003009   0.4992819   0.0002658  )
         3           Al  tau(   3) = (   0.4996490   0.0001153   0.5011170  )
         4           Al  tau(   4) = (  -0.0000756   0.5008267   0.5006943  )

     number of k points=    32  Marzari-Vanderbilt smearing, width (Ry)=  0.0200
                       cart. coord. in units 2pi/alat
        k(    1) = (   0.1250000   0.1250000   0.1250000), wk =   0.0625000
        k(    2) = (   0.1250000   0.1250000   0.3750000), wk =   0.0625000
        k(    3) = (   0.1250000   0.3750000   0.3750000), wk =   0.0625000
        k(    4) = (   0.3750000   0.3750000   0.3750000), wk =   0.0625000
        k(    5) = (  -0.1250000  -0.1250000   0.1250000), wk =   0.0625000
        k(    6) = (  -0.1250000   0.1250000  -0.1250000), wk =   0.0625000
        k(    7) = (   0.1250000  -0.1250000  -0.1250000), wk =   0.0625000
        k(    8) = (  -0.1250000  -0.1250000   0.3750000), wk =   0.0625000
        k(    9) = (  -0.1250000   0.1250000  -0.3750000), wk =   0.0625000
        k(   10) = (   0.1250000  -0.1250000  -0.3750000), wk =   0.0625000
        k(   11) = (   0.3750000  -0.1250000   0.1250000), wk =   0.0625000
        k(   12) = (  -0.3750000  -0.1250000  -0.1250000), wk =   0.0625000
        k(   13) = (   0.3750000   0.1250000  -0.1250000), wk =   0.0625000
        k(   14) = (  -0.3750000   0.1250000   0.1250000), wk =   0.0625000
        k(   15) = (  -0.1250000   0.3750000   0.1250000), wk =   0.0625000
        k(   16) = (  -0.1250000  -0.3750000  -0.1250000), wk =   0.0625000
        k(   17) = (   0.1250000   0.3750000  -0.1250000), wk =   0.0625000
        k(   18) = (   0.1250000  -0.3750000   0.1250000), wk =   0.0625000
        k(   19) = (  -0.1250000  -0.3750000   0.3750000), wk =   0.0625000
        k(   20) = (  -0.1250000   0.3750000  -0.3750000), wk =   0.0625000
        k(   21) = (   0.1250000  -0.3750000  -0.3750000), wk =   0.0625000
        k(   22) = (   0.3750000   0.1250000  -0.3750000), wk =   0.0625000
        k(   23) = (  -0.3750000  -0.1250000  -0.3750000), wk =   0.0625000
        k(   24) = (   0.3750000  -0.1250000   0.3750000), wk =   0.0625000
        k(   25) = (  -0.3750000   0.1250000   0.3750000), wk =   0.0625000
        k(   26) = (   0.3750000  -0.3750000   0.1250000), wk =   0.0625000
        k(   27) = (  -0.3750000  -0.3750000  -0.1250000), wk =   0.0625000
        k(   28) = (   0.3750000   0.3750000  -0.1250000), wk =   0.0625000
        k(   29) = (  -0.3750000   0.3750000   0.1250000), wk =   0.0625000
        k(   30) = (  -0.3750000  -0.3750000   0.3750000), wk =   0.0625000
        k(   31) = (  -0.3750000   0.3750000  -0.3750000), wk =   0.0625000
        k(   32) = (   0.3750000  -0.3750000  -0.3750000), wk =   0.0625000

     Dense  grid:     5185 G-vectors     FFT dimensions: (  24,  24,  24)

     Smooth grid:     1419 G-vectors     FFT dimensions: (  15,  15,  15)

     Estimated max dynamical RAM per process >       0.71 MB

     Estimated total dynamical RAM >      14.28 MB

     Initial potential from superposition of free atoms

     starting charge   11.99084, renormalised to   12.00000
     Starting wfcs are   16 randomized atomic wfcs
     Checking if some PAW data can be deallocated... 

     total cpu time spent up to now is        0.7 secs

     Self-consistent Calculation

     iteration #  1     ecut=    30.00 Ry     beta= 0.10
     Davidson diagonalization with overlap
     ethr =  1.00E-02,  avg # of iterations =  4.6

     total cpu time spent up to now is        0.9 secs

     total energy              =    -141.63479014 Ry
     Harris-Foulkes estimate   =    -141.78943066 Ry
     estimated scf accuracy    <       0.18072539 Ry

     iteration #  2     ecut=    30.00 Ry     beta= 0.10
     Davidson diagonalization with overlap
     ethr =  1.51E-03,  avg # of iterations =  1.0

     total cpu time spent up to now is        1.0 secs

     total energy              =    -141.14523829 Ry
     Harris-Foulkes estimate   =    -141.63834122 Ry
     estimated scf accuracy    <       0.15259592 Ry

     iteration #  3     ecut=    30.00 Ry     beta= 0.10
     Davidson diagonalization with overlap
     ethr =  1.27E-03,  avg # of iterations =  2.0

     total cpu time spent up to now is        1.1 secs

     total energy              =    -141.22469161 Ry
     Harris-Foulkes estimate   =    -141.24386638 Ry
     estimated scf accuracy    <       0.01643901 Ry

     iteration #  4     ecut=    30.00 Ry     beta= 0.10
     Davidson diagonalization with overlap
     ethr =  1.37E-04,  avg # of iterations =  1.1

     total cpu time spent up to now is        1.2 secs

     total energy              =    -141.22399786 Ry
     Harris-Foulkes estimate   =    -141.22536240 Ry
     estimated scf accuracy    <       0.01240478 Ry

     iteration #  5     ecut=    30.00 Ry     beta= 0.10
     Davidson diagonalization with overlap
     ethr =  1.03E-04,  avg # of iterations =  1.0

     total cpu time spent up to now is        1.3 secs

     total energy              =    -141.22639016 Ry
     Harris-Foulkes estimate   =    -141.22520274 Ry
     estimated scf accuracy    <       0.00039467 Ry

     iteration #  6     ecut=    30.00 Ry     beta= 0.10
     Davidson diagonalization with overlap
     ethr =  3.29E-06,  avg # of iterations =  2.9

     total cpu time spent up to now is        1.4 secs

     total energy              =    -141.22617492 Ry
     Harris-Foulkes estimate   =    -141.22658119 Ry
     estimated scf accuracy    <       0.00004704 Ry

     iteration #  7     ecut=    30.00 Ry     beta= 0.10
     Davidson diagonalization with overlap
     ethr =  3.92E-07,  avg # of iterations =  1.0

     total cpu time spent up to now is        1.5 secs

     total energy              =    -141.22507435 Ry
     Harris-Foulkes estimate   =    -141.22617791 Ry
     estimated scf accuracy    <       0.00004192 Ry

     iteration #  8     ecut=    30.00 Ry     beta= 0.10
     Davidson diagonalization with overlap
     ethr =  3.49E-07,  avg # of iterations =  3.0

     total cpu time spent up to now is        1.6 secs

     total energy              =    -141.22518598 Ry
     Harris-Foulkes estimate   =    -141.22514640 Ry
     estimated scf accuracy    <       0.00000619 Ry

     iteration #  9     ecut=    30.00 Ry     beta= 0.10
     Davidson diagonalization with overlap
     ethr =  5.16E-08,  avg # of iterations =  2.0

     total cpu time spent up to now is        1.7 secs

     total energy              =    -141.22508564 Ry
     Harris-Foulkes estimate   =    -141.22518685 Ry
     estimated scf accuracy    <       0.00000869 Ry

     iteration # 10     ecut=    30.00 Ry     beta= 0.10
     Davidson diagonalization with overlap
     ethr =  5.16E-08,  avg # of iterations =  3.0

     total cpu time spent up to now is        1.9 secs

     total energy              =    -141.22509500 Ry
     Harris-Foulkes estimate   =    -141.22509450 Ry
     estimated scf accuracy    <       0.00000114 Ry

     iteration # 11     ecut=    30.00 Ry     beta= 0.10
     Davidson diagonalization with overlap
     ethr =  9.49E-09,  avg # of iterations =  2.0

     total cpu time spent up to now is        2.0 secs

     End of self-consistent calculation

          k = 0.1250 0.1250 0.1250 (   181 PWs)   bands (ev):

    30.9224  41.4643  41.4834  41.5021  52.4651  52.4855  52.5056  54.9553
    54.9652  54.9752

          k = 0.1250 0.1250 0.3750 (   185 PWs)   bands (ev):

    34.4153  39.0207  43.9698  43.9888  51.8403  51.8576  54.9077  54.9164
    55.7193  61.5457

          k = 0.1250 0.3750 0.3750 (   181 PWs)   bands (ev):

    37.4302  41.6743  41.7113  44.5722  50.5209  52.9470  52.9963  57.0914
    57.6090  60.7709

          k = 0.3750 0.3750 0.3750 (   178 PWs)   bands (ev):

    39.8951  44.0006  44.0385  44.0761  47.8120  47.8534  47.8948  51.6840
    67.0152  67.0184

          k =-0.1250-0.1250 0.1250 (   181 PWs)   bands (ev):

    30.9224  41.4683  41.4834  41.4982  52.4694  52.4854  52.5014  54.9574
    54.9652  54.9732

          k =-0.1250 0.1250-0.1250 (   181 PWs)   bands (ev):

    30.9224  41.4721  41.4833  41.4943  52.4735  52.4855  52.4972  54.9595
    54.9653  54.9711

          k = 0.1250-0.1250-0.1250 (   181 PWs)   bands (ev):

    30.9224  41.4701  41.4834  41.4964  52.4713  52.4855  52.4995  54.9584
    54.9652  54.9722

          k =-0.1250-0.1250 0.3750 (   185 PWs)   bands (ev):

    34.4153  39.0207  43.9698  43.9887  51.8403  51.8576  54.9077  54.9164
    55.7190  61.5459

          k =-0.1250 0.1250-0.3750 (   185 PWs)   bands (ev):

    34.4153  39.0207  43.9749  43.9836  51.8449  51.8529  54.9100  54.9140
    55.7191  61.5458

          k = 0.1250-0.1250-0.3750 (   185 PWs)   bands (ev):

    34.4153  39.0207  43.9750  43.9836  51.8449  51.8528  54.9100  54.9140
    55.7193  61.5455

          k = 0.3750-0.1250 0.1250 (   185 PWs)   bands (ev):

    34.4154  39.0206  43.9749  43.9837  51.8447  51.8527  54.9102  54.9142
    55.7193  61.5457

          k =-0.3750-0.1250-0.1250 (   185 PWs)   bands (ev):

    34.4154  39.0205  43.9713  43.9874  51.8416  51.8563  54.9080  54.9154
    55.7199  61.5460

          k = 0.3750 0.1250-0.1250 (   185 PWs)   bands (ev):

    34.4154  39.0206  43.9749  43.9837  51.8447  51.8527  54.9102  54.9142
    55.7193  61.5458

          k =-0.3750 0.1250 0.1250 (   185 PWs)   bands (ev):

    34.4154  39.0206  43.9712  43.9873  51.8417  51.8564  54.9081  54.9154
    55.7195  61.5461

          k =-0.1250 0.3750 0.1250 (   185 PWs)   bands (ev):

    34.4154  39.0205  43.9782  43.9807  51.8478  51.8500  54.9114  54.9125
    55.7192  61.5459

          k =-0.1250-0.3750-0.1250 (   185 PWs)   bands (ev):

    34.4154  39.0205  43.9747  43.9842  51.8445  51.8531  54.9099  54.9142
    55.7193  61.5460

          k = 0.1250 0.3750-0.1250 (   185 PWs)   bands (ev):

    34.4154  39.0205  43.9782  43.9807  51.8478  51.8500  54.9112  54.9124
    55.7196  61.5458

          k = 0.1250-0.3750 0.1250 (   185 PWs)   bands (ev):

    34.4154  39.0205  43.9747  43.9842  51.8446  51.8532  54.9098  54.9142
    55.7192  61.5459

          k =-0.1250-0.3750 0.3750 (   181 PWs)   bands (ev):

    37.4301  41.6828  41.7029  44.5721  50.5211  52.9581  52.9850  57.0908
    57.6099  60.7737

          k =-0.1250 0.3750-0.3750 (   181 PWs)   bands (ev):

    37.4301  41.6828  41.7029  44.5721  50.5210  52.9581  52.9850  57.0904
    57.6104  60.7738

          k = 0.1250-0.3750-0.3750 (   181 PWs)   bands (ev):

    37.4301  41.6743  41.7113  44.5722  50.5209  52.9470  52.9963  57.0910
    57.6093  60.7741

          k = 0.3750 0.1250-0.3750 (   181 PWs)   bands (ev):

    37.4301  41.6900  41.6955  44.5721  50.5209  52.9680  52.9754  57.0915
    57.6092  60.7766

          k =-0.3750-0.1250-0.3750 (   181 PWs)   bands (ev):

    37.4301  41.6819  41.7036  44.5720  50.5212  52.9573  52.9862  57.0916
    57.6088  60.7738

          k = 0.3750-0.1250 0.3750 (   181 PWs)   bands (ev):

    37.4301  41.6820  41.7037  44.5720  50.5210  52.9572  52.9861  57.0918
    57.6090  60.7731

          k =-0.3750 0.1250 0.3750 (   181 PWs)   bands (ev):

    37.4301  41.6900  41.6955  44.5721  50.5210  52.9681  52.9755  57.0911
    57.6092  60.7763

          k = 0.3750-0.3750 0.1250 (   181 PWs)   bands (ev):

    37.4302  41.6829  41.7027  44.5721  50.5207  52.9583  52.9849  57.0917
    57.6090  60.7764

          k =-0.3750-0.3750-0.1250 (   181 PWs)   bands (ev):

    37.4302  41.6711  41.7145  44.5720  50.5211  52.9426  53.0006  57.0896
    57.6110  60.7762

          k = 0.3750 0.3750-0.1250 (   181 PWs)   bands (ev):

    37.4302  41.6711  41.7145  44.5721  50.5209  52.9425  53.0005  57.0917
    57.6089  60.7779

          k =-0.3750 0.3750 0.1250 (   181 PWs)   bands (ev):

    37.4302  41.6829  41.7027  44.5721  50.5211  52.9584  52.9850  57.0870
    57.6136  60.7752

          k =-0.3750-0.3750 0.3750 (   178 PWs)   bands (ev):

    39.8951  44.0085  44.0385  44.0681  47.8207  47.8533  47.8861  51.6841
    67.0133  67.0178

          k =-0.3750 0.3750-0.3750 (   178 PWs)   bands (ev):

    39.8950  44.0162  44.0384  44.0604  47.8292  47.8534  47.8776  51.6842
    67.0146  67.0166

          k = 0.3750-0.3750-0.3750 (   178 PWs)   bands (ev):

    39.8950  44.0121  44.0384  44.0645  47.8248  47.8534  47.8822  51.6840
    67.0138  67.0169

     the Fermi energy is    52.6985 ev

!    total energy              =    -141.22509385 Ry
     Harris-Foulkes estimate   =    -141.22509530 Ry
     estimated scf accuracy    <       0.00000028 Ry

     total all-electron energy =     -1925.796222 Ry

     The total energy is the sum of the following terms:

     one-electron contribution =      58.69396837 Ry
     hartree contribution      =       0.21139543 Ry
     xc contribution           =     -17.28405809 Ry
     ewald contribution        =     -40.85514762 Ry
     one-center paw contrib.   =    -141.99067648 Ry
     smearing contrib. (-TS)   =      -0.00057545 Ry

     convergence has been achieved in  11 iterations

     Forces acting on atoms (cartesian axes, Ry/au):

     atom    1 type  1   force =     0.00202136   -0.00042213    0.01656952
     atom    2 type  1   force =    -0.00334488    0.00389748    0.01654158
     atom    3 type  1   force =    -0.00048604   -0.00067524   -0.01751255
     atom    4 type  1   force =     0.00180957   -0.00280011   -0.01559855

     Total force =     0.033773     Total SCF correction =     0.000017


     Computing stress (Cartesian axis) and pressure

          total   stress  (Ry/bohr**3)                   (kbar)     P=59552.33
   0.40483398   0.00000110   0.00000090      59553.12      0.16      0.13
   0.00000110   0.40482254  -0.00000116          0.16  59551.44     -0.17
   0.00000090  -0.00000116   0.40482919          0.13     -0.17  59552.42


     Writing output data file fe_scf_fcc_2.save/
 
     init_run     :      0.11s CPU      0.15s WALL (       1 calls)
     electrons    :      1.12s CPU      1.25s WALL (       1 calls)
     forces       :      0.01s CPU      0.01s WALL (       1 calls)
     stress       :      0.01s CPU      0.01s WALL (       1 calls)

     Called by init_run:
     wfcinit      :      0.06s CPU      0.06s WALL (       1 calls)
     potinit      :      0.01s CPU      0.02s WALL (       1 calls)
     hinit0       :      0.04s CPU      0.07s WALL (       1 calls)

     Called by electrons:
     c_bands      :      0.83s CPU      0.92s WALL (      11 calls)
     sum_band     :      0.13s CPU      0.15s WALL (      11 calls)
     v_of_rho     :      0.01s CPU      0.01s WALL (      12 calls)
     newd         :      0.00s CPU      0.00s WALL (      12 calls)
     PAW_pot      :      0.14s CPU      0.15s WALL (      12 calls)
     mix_rho      :      0.01s CPU      0.01s WALL (      11 calls)

     Called by c_bands:
     init_us_2    :      0.01s CPU      0.01s WALL (     800 calls)
     cegterg      :      0.81s CPU      0.89s WALL (     352 calls)

     Called by sum_band:
     sum_band:bec :      0.00s CPU      0.00s WALL (     352 calls)
     addusdens    :      0.00s CPU      0.00s WALL (      11 calls)

     Called by *egterg:
     h_psi        :      0.54s CPU      0.60s WALL (    1141 calls)
     s_psi        :      0.01s CPU      0.01s WALL (    1141 calls)
     g_psi        :      0.00s CPU      0.00s WALL (     757 calls)
     cdiaghg      :      0.20s CPU      0.22s WALL (    1109 calls)

     Called by h_psi:
     h_psi:pot    :      0.53s CPU      0.60s WALL (    1141 calls)
     h_psi:calbec :      0.05s CPU      0.06s WALL (    1141 calls)
     vloc_psi     :      0.47s CPU      0.52s WALL (    1141 calls)
     add_vuspsi   :      0.01s CPU      0.01s WALL (    1141 calls)

     General routines
     calbec       :      0.08s CPU      0.09s WALL (    1653 calls)
     fft          :      0.04s CPU      0.08s WALL (     180 calls)
     ffts         :      0.00s CPU      0.00s WALL (      23 calls)
     fftw         :      0.53s CPU      0.59s WALL (   22564 calls)
     interpolate  :      0.00s CPU      0.00s WALL (      12 calls)
 
     Parallel routines
     fft_scatt_xy :      0.03s CPU      0.04s WALL (   22767 calls)
     fft_scatt_yz :      0.45s CPU      0.50s WALL (   22767 calls)
 
     PWSCF        :     1.84s CPU         2.18s WALL

 
   This run was terminated on:  19: 9:25  22Oct2019            

=------------------------------------------------------------------------------=
   JOB DONE.
=------------------------------------------------------------------------------=
