
     Program PWSCF v.6.3 starts on 23Oct2019 at  0: 6:29 

     This program is part of the open-source Quantum ESPRESSO suite
     for quantum simulation of materials; please cite
         "P. Giannozzi et al., J. Phys.:Condens. Matter 21 395502 (2009);
         "P. Giannozzi et al., J. Phys.:Condens. Matter 29 465901 (2017);
          URL http://www.quantum-espresso.org", 
     in publications or presentations arising from this work. More details at
     http://www.quantum-espresso.org/quote

     Parallel version (MPI & OpenMP), running on      20 processor cores
     Number of MPI processes:                20
     Threads/MPI process:                     1

     MPI processes distributed on     1 nodes
     R & G space division:  proc/nbgrp/npool/nimage =      20
     Reading input from /rds/homes/b/bxp912/jobs/20191022_test2/wd/runpwscf/file_10249.in
Warning: card &IONS ignored
Warning: card ION_DYNAMICS = 'BFGS', ignored
Warning: card / ignored
Warning: card &CELL ignored
Warning: card CELL_DYNAMICS = 'BFGS', ignored
Warning: card CELL_FACTOR = 2.0, ignored
Warning: card PRESS = 0.0, ignored
Warning: card / ignored

     Current dimensions of program PWSCF are:
     Max number of different atomic species (ntypx) = 10
     Max number of k-points (npk) =  40000
     Max angular momentum in pseudopotentials (lmaxx) =  3
     Message from routine read_upf::
     Pseudo file /rds/homes/b/bxp912/pp/Al.pbe-nl-kjpaw_psl.1.0.0.UPF has been successfully fixed on the fly.
To avoid this message in the future you can permanently fix 
 your pseudo files following instructions given in: 
https://gitlab.com/QEF/q-e/blob/master/upftools/how_to_fix_upf.md
               file Al.pbe-nl-kjpaw_psl.1.0.0.UPF: wavefunction(s)  3S 3P renormalized

     Subspace diagonalization in iterative solution of the eigenvalue problem:
     a serial algorithm will be used

 
     Parallelization info
     --------------------
     sticks:   dense  smooth     PW     G-vecs:    dense   smooth      PW
     Min          52      52     20                 1262     1262     300
     Max          53      53     21                 1265     1265     303
     Sum        1041    1041    401                25269    25269    6031
 


     bravais-lattice index     =            0
     lattice parameter (alat)  =       8.0800  a.u.
     unit-cell volume          =     527.5141 (a.u.)^3
     number of atoms/cell      =           32
     number of atomic types    =            1
     number of electrons       =        96.00
     number of Kohn-Sham states=           58
     kinetic-energy cutoff     =      66.0000  Ry
     charge density cutoff     =     200.0000  Ry
     convergence threshold     =      1.0E-06
     mixing beta               =       0.1000
     number of iterations used =           10  TF        mixing
     Exchange-correlation      = SLA PW PBX PBC ( 1  4  3  4 0 0)

     celldm(1)=   8.080000  celldm(2)=   0.000000  celldm(3)=   0.000000
     celldm(4)=   0.000000  celldm(5)=   0.000000  celldm(6)=   0.000000

     crystal axes: (cart. coord. in units of alat)
               a(1) = (   1.000000   0.000000   0.000000 )  
               a(2) = (   0.000000   1.000000   0.000000 )  
               a(3) = (   0.000000   0.000000   1.000000 )  

     reciprocal axes: (cart. coord. in units 2 pi/alat)
               b(1) = (  1.000000  0.000000  0.000000 )  
               b(2) = (  0.000000  1.000000  0.000000 )  
               b(3) = (  0.000000  0.000000  1.000000 )  


     PseudoPot. # 1 for Al read from file:
     /rds/homes/b/bxp912/pp/Al.pbe-nl-kjpaw_psl.1.0.0.UPF
     MD5 check sum: 339dbea23cf3ab9a065ad45c0f9085d7
     Pseudo is Projector augmented-wave + core cor, Zval =  3.0
     Generated using "atomic" code by A. Dal Corso v.5.1
     Shape of augmentation charge: PSQ
     Using radial grid of 1135 points,  4 beta functions with: 
                l(1) =   0
                l(2) =   0
                l(3) =   1
                l(4) =   1
     Q(r) pseudized with 0 coefficients 


     atomic species   valence    mass     pseudopotential
        Al             3.00    26.98200     Al( 1.00)

     No symmetry found



   Cartesian axes

     site n.     atom                  positions (alat units)
         1           Al  tau(   1) = (  -0.0000618   0.0000180   0.0001286  )
         2           Al  tau(   2) = (   0.2501504   0.2496409   0.0001329  )
         3           Al  tau(   3) = (   0.2498245   0.0000576   0.2505585  )
         4           Al  tau(   4) = (  -0.0000378   0.2504134   0.2503472  )
         5           Al  tau(   5) = (   0.0004835   0.0004765   0.4997751  )
         6           Al  tau(   6) = (   0.2502257   0.2496836   0.5000068  )
         7           Al  tau(   7) = (   0.2500525   0.0002908   0.7497884  )
         8           Al  tau(   8) = (   0.0001038   0.2502148   0.7503971  )
         9           Al  tau(   9) = (   0.0004488   0.5002037  -0.0000292  )
        10           Al  tau(  10) = (   0.2502638   0.7503330   0.0007661  )
        11           Al  tau(  11) = (   0.2503574   0.5002057   0.2504745  )
        12           Al  tau(  12) = (   0.0000725   0.7500861   0.2500479  )
        13           Al  tau(  13) = (   0.0002082   0.5002952   0.5001871  )
        14           Al  tau(  14) = (   0.2499320   0.7501195   0.4997555  )
        15           Al  tau(  15) = (   0.2506361   0.4996019   0.7494255  )
        16           Al  tau(  16) = (  -0.0006199   0.7494434   0.7499870  )
        17           Al  tau(  17) = (   0.5003850  -0.0001898  -0.0000732  )
        18           Al  tau(  18) = (   0.7498343   0.2501778  -0.0004407  )
        19           Al  tau(  19) = (   0.7493109  -0.0001812   0.2501458  )
        20           Al  tau(  20) = (   0.4999530   0.2499270   0.2496819  )
        21           Al  tau(  21) = (   0.4998509   0.0005536   0.4999482  )
        22           Al  tau(  22) = (   0.7501292   0.2494251   0.4999098  )
        23           Al  tau(  23) = (   0.7500676  -0.0001298   0.7500485  )
        24           Al  tau(  24) = (   0.5000215   0.2497853   0.7499902  )
        25           Al  tau(  25) = (   0.4997214   0.5002185  -0.0004144  )
        26           Al  tau(  26) = (   0.7495697   0.7501849   0.0005172  )
        27           Al  tau(  27) = (   0.7501903   0.4996254   0.2498983  )
        28           Al  tau(  28) = (   0.5001659   0.7496046   0.2503955  )
        29           Al  tau(  29) = (   0.4993878   0.5001941   0.5000764  )
        30           Al  tau(  30) = (   0.7503133   0.7499759   0.4997253  )
        31           Al  tau(  31) = (   0.7499001   0.5000179   0.7502634  )
        32           Al  tau(  32) = (   0.5000268   0.7499029   0.7498445  )

     number of k points=   172  Marzari-Vanderbilt smearing, width (Ry)=  0.0010

     Number of k-points >= 100: set verbosity='high' to print them.

     Dense  grid:    25269 G-vectors     FFT dimensions: (  40,  40,  40)

     Estimated max dynamical RAM per process >      43.83 MB

     Estimated total dynamical RAM >     876.53 MB

     Initial potential from superposition of free atoms

     starting charge   95.92671, renormalised to   96.00000
     Starting wfcs are  128 randomized atomic wfcs
     Checking if some PAW data can be deallocated... 

     total cpu time spent up to now is        8.3 secs

     Self-consistent Calculation

     iteration #  1     ecut=    66.00 Ry     beta= 0.10
     Davidson diagonalization with overlap
     ethr =  1.00E-02,  avg # of iterations =  5.2

     total cpu time spent up to now is       30.1 secs

     total energy              =   -1133.16873064 Ry
     Harris-Foulkes estimate   =   -1134.39990654 Ry
     estimated scf accuracy    <       1.41951149 Ry

     iteration #  2     ecut=    66.00 Ry     beta= 0.10
     Davidson diagonalization with overlap
     ethr =  1.48E-03,  avg # of iterations =  3.9

     total cpu time spent up to now is       42.1 secs

     total energy              =   -1129.53666151 Ry
     Harris-Foulkes estimate   =   -1133.27759405 Ry
     estimated scf accuracy    <       1.22992294 Ry

     iteration #  3     ecut=    66.00 Ry     beta= 0.10
     Davidson diagonalization with overlap
     ethr =  1.28E-03,  avg # of iterations =  4.2

     total cpu time spent up to now is       59.9 secs

     total energy              =   -1130.08788803 Ry
     Harris-Foulkes estimate   =   -1130.48471880 Ry
     estimated scf accuracy    <       0.19246705 Ry

     iteration #  4     ecut=    66.00 Ry     beta= 0.10
     Davidson diagonalization with overlap
     ethr =  2.00E-04,  avg # of iterations =  2.6

     total cpu time spent up to now is       70.4 secs

     total energy              =   -1130.04779537 Ry
     Harris-Foulkes estimate   =   -1130.10339559 Ry
     estimated scf accuracy    <       0.12419069 Ry

     iteration #  5     ecut=    66.00 Ry     beta= 0.10
     Davidson diagonalization with overlap
     ethr =  1.29E-04,  avg # of iterations =  3.5

     total cpu time spent up to now is       84.7 secs

     total energy              =   -1130.02879028 Ry
     Harris-Foulkes estimate   =   -1130.08669603 Ry
     estimated scf accuracy    <       0.01156468 Ry

     iteration #  6     ecut=    66.00 Ry     beta= 0.10
     Davidson diagonalization with overlap
     c_bands:  1 eigenvalues not converged
     c_bands:  1 eigenvalues not converged
     c_bands:  2 eigenvalues not converged
     c_bands:  2 eigenvalues not converged
     c_bands:  1 eigenvalues not converged
     c_bands:  2 eigenvalues not converged
     ethr =  1.20E-05,  avg # of iterations =  5.9

     total cpu time spent up to now is      103.6 secs

     total energy              =   -1130.03796869 Ry
     Harris-Foulkes estimate   =   -1130.03954386 Ry
     estimated scf accuracy    <       0.00476252 Ry

     iteration #  7     ecut=    66.00 Ry     beta= 0.10
     Davidson diagonalization with overlap
     c_bands:  1 eigenvalues not converged
     c_bands:  4 eigenvalues not converged
     ethr =  4.96E-06,  avg # of iterations =  3.7

     total cpu time spent up to now is      116.0 secs

     total energy              =   -1130.04170231 Ry
     Harris-Foulkes estimate   =   -1130.05261005 Ry
     estimated scf accuracy    <       0.00398202 Ry

     iteration #  8     ecut=    66.00 Ry     beta= 0.10
     Davidson diagonalization with overlap
     ethr =  4.15E-06,  avg # of iterations =  2.8

     total cpu time spent up to now is      130.2 secs

     total energy              =   -1130.04179368 Ry
     Harris-Foulkes estimate   =   -1130.04217782 Ry
     estimated scf accuracy    <       0.00106719 Ry

     iteration #  9     ecut=    66.00 Ry     beta= 0.10
     Davidson diagonalization with overlap
     c_bands:  2 eigenvalues not converged
     ethr =  1.11E-06,  avg # of iterations =  6.2

     total cpu time spent up to now is      148.0 secs

     total energy              =   -1130.04579166 Ry
     Harris-Foulkes estimate   =   -1130.04556333 Ry
     estimated scf accuracy    <       0.00014348 Ry

     iteration # 10     ecut=    66.00 Ry     beta= 0.10
     Davidson diagonalization with overlap
     c_bands:  2 eigenvalues not converged
     c_bands:  1 eigenvalues not converged
     c_bands:  1 eigenvalues not converged
     ethr =  1.49E-07,  avg # of iterations =  5.1

     total cpu time spent up to now is      165.0 secs

     total energy              =   -1130.04344403 Ry
     Harris-Foulkes estimate   =   -1130.04582656 Ry
     estimated scf accuracy    <       0.00025602 Ry

     iteration # 11     ecut=    66.00 Ry     beta= 0.10
     Davidson diagonalization with overlap
     ethr =  1.49E-07,  avg # of iterations =  4.2

     total cpu time spent up to now is      184.4 secs

     total energy              =   -1130.04349684 Ry
     Harris-Foulkes estimate   =   -1130.04357745 Ry
     estimated scf accuracy    <       0.00020211 Ry

     iteration # 12     ecut=    66.00 Ry     beta= 0.10
     Davidson diagonalization with overlap
     ethr =  1.49E-07,  avg # of iterations =  1.0

     total cpu time spent up to now is      192.3 secs

     total energy              =   -1130.04349914 Ry
     Harris-Foulkes estimate   =   -1130.04350035 Ry
     estimated scf accuracy    <       0.00012797 Ry

     iteration # 13     ecut=    66.00 Ry     beta= 0.10
     Davidson diagonalization with overlap
     ethr =  1.33E-07,  avg # of iterations =  1.0

     total cpu time spent up to now is      200.1 secs

     total energy              =   -1130.04345589 Ry
     Harris-Foulkes estimate   =   -1130.04350026 Ry
     estimated scf accuracy    <       0.00008338 Ry

     iteration # 14     ecut=    66.00 Ry     beta= 0.10
     Davidson diagonalization with overlap
     ethr =  8.69E-08,  avg # of iterations =  1.0

     total cpu time spent up to now is      208.2 secs

     total energy              =   -1130.04345696 Ry
     Harris-Foulkes estimate   =   -1130.04345883 Ry
     estimated scf accuracy    <       0.00005168 Ry

     iteration # 15     ecut=    66.00 Ry     beta= 0.10
     Davidson diagonalization with overlap
     ethr =  5.38E-08,  avg # of iterations =  1.2

     total cpu time spent up to now is      216.3 secs

     total energy              =   -1130.04345691 Ry
     Harris-Foulkes estimate   =   -1130.04345864 Ry
     estimated scf accuracy    <       0.00001772 Ry

     iteration # 16     ecut=    66.00 Ry     beta= 0.10
     Davidson diagonalization with overlap
     ethr =  1.85E-08,  avg # of iterations =  4.0

     total cpu time spent up to now is      228.5 secs

     total energy              =   -1130.04344802 Ry
     Harris-Foulkes estimate   =   -1130.04345871 Ry
     estimated scf accuracy    <       0.00000709 Ry

     iteration # 17     ecut=    66.00 Ry     beta= 0.10
     Davidson diagonalization with overlap
     ethr =  7.38E-09,  avg # of iterations =  4.8

     total cpu time spent up to now is      249.1 secs

     total energy              =   -1130.04345143 Ry
     Harris-Foulkes estimate   =   -1130.04345476 Ry
     estimated scf accuracy    <       0.00004227 Ry

     iteration # 18     ecut=    66.00 Ry     beta= 0.10
     Davidson diagonalization with overlap
     ethr =  7.38E-09,  avg # of iterations =  2.8

     total cpu time spent up to now is      259.9 secs

     total energy              =   -1130.04345239 Ry
     Harris-Foulkes estimate   =   -1130.04345262 Ry
     estimated scf accuracy    <       0.00000954 Ry

     iteration # 19     ecut=    66.00 Ry     beta= 0.10
     Davidson diagonalization with overlap
     ethr =  7.38E-09,  avg # of iterations =  1.0

     total cpu time spent up to now is      267.9 secs

     total energy              =   -1130.04345121 Ry
     Harris-Foulkes estimate   =   -1130.04345247 Ry
     estimated scf accuracy    <       0.00001014 Ry

     iteration # 20     ecut=    66.00 Ry     beta= 0.10
     Davidson diagonalization with overlap
     ethr =  7.38E-09,  avg # of iterations =  1.0

     total cpu time spent up to now is      275.8 secs

     total energy              =   -1130.04344952 Ry
     Harris-Foulkes estimate   =   -1130.04345137 Ry
     estimated scf accuracy    <       0.00000489 Ry

     iteration # 21     ecut=    66.00 Ry     beta= 0.10
     Davidson diagonalization with overlap
     ethr =  5.10E-09,  avg # of iterations =  3.8

     total cpu time spent up to now is      289.2 secs

     total energy              =   -1130.04345073 Ry
     Harris-Foulkes estimate   =   -1130.04345068 Ry
     estimated scf accuracy    <       0.00000158 Ry

     iteration # 22     ecut=    66.00 Ry     beta= 0.10
     Davidson diagonalization with overlap
     ethr =  1.65E-09,  avg # of iterations =  1.0

     total cpu time spent up to now is      297.3 secs

     End of self-consistent calculation

     Number of k-points >= 100: set verbosity='high' to print the bands.

     the Fermi energy is    52.7073 ev

!    total energy              =   -1130.04345005 Ry
     Harris-Foulkes estimate   =   -1130.04345078 Ry
     estimated scf accuracy    <       0.00000076 Ry

     total all-electron energy =    -15406.612472 Ry

     The total energy is the sum of the following terms:

     one-electron contribution =     469.14703145 Ry
     hartree contribution      =       1.75615974 Ry
     xc contribution           =    -138.29018525 Ry
     ewald contribution        =    -326.84024986 Ry
     one-center paw contrib.   =   -1135.81615194 Ry
     smearing contrib. (-TS)   =      -0.00005419 Ry

     convergence has been achieved in  22 iterations

     Forces acting on atoms (cartesian axes, Ry/au):

     atom    1 type  1   force =    -0.00447821   -0.00410581    0.00081954
     atom    2 type  1   force =    -0.00499179   -0.00247084    0.01296649
     atom    3 type  1   force =     0.01229057    0.00129300   -0.01973469
     atom    4 type  1   force =    -0.00738308    0.00382869   -0.02366862
     atom    5 type  1   force =    -0.01390978   -0.01274641    0.01621928
     atom    6 type  1   force =    -0.01135484    0.01114467   -0.00609045
     atom    7 type  1   force =    -0.01510205   -0.03174701    0.01241608
     atom    8 type  1   force =    -0.00590160    0.01005486   -0.00323261
     atom    9 type  1   force =     0.02003606    0.00577303   -0.00162671
     atom   10 type  1   force =    -0.00631648    0.00973859   -0.02665792
     atom   11 type  1   force =    -0.00984333   -0.01829545   -0.01224729
     atom   12 type  1   force =    -0.01568649   -0.00520001   -0.01113516
     atom   13 type  1   force =    -0.00380623   -0.01718532    0.00704436
     atom   14 type  1   force =    -0.01095308    0.02096898    0.01830183
     atom   15 type  1   force =    -0.01839724    0.01371960    0.01688577
     atom   16 type  1   force =     0.02293610    0.01037170    0.01446232
     atom   17 type  1   force =    -0.01687661   -0.00487877   -0.00139067
     atom   18 type  1   force =     0.01064800   -0.00331884    0.01353516
     atom   19 type  1   force =     0.01967004    0.01193371   -0.00511980
     atom   20 type  1   force =     0.00582565    0.02059744   -0.01120454
     atom   21 type  1   force =     0.00452849   -0.02200953    0.01033316
     atom   22 type  1   force =    -0.00142378    0.02259528    0.01305217
     atom   23 type  1   force =     0.01387978   -0.00893820   -0.01169513
     atom   24 type  1   force =     0.01519962    0.00558457    0.00418615
     atom   25 type  1   force =    -0.01122821   -0.00020124    0.00456403
     atom   26 type  1   force =     0.01150605   -0.00806018    0.00449234
     atom   27 type  1   force =    -0.00773423   -0.00784131    0.00248539
     atom   28 type  1   force =     0.00586305   -0.00009323    0.00571527
     atom   29 type  1   force =     0.03756003   -0.01843223    0.00273001
     atom   30 type  1   force =    -0.00352636    0.00769534   -0.00117053
     atom   31 type  1   force =    -0.01102974   -0.00546783   -0.01582417
     atom   32 type  1   force =    -0.00000031    0.01569273   -0.00941105

     Total force =     0.126064     Total SCF correction =     0.001650


     Computing stress (Cartesian axis) and pressure

          total   stress  (Ry/bohr**3)                   (kbar)     P=59600.65
   0.40515777   0.00000139  -0.00000077      59600.76      0.20     -0.11
   0.00000139   0.40514941   0.00001108          0.20  59599.53      1.63
  -0.00000077   0.00001108   0.40516392         -0.11      1.63  59601.66


     Writing output data file fe_scf_fcc_2.save/
 
     init_run     :      7.34s CPU      7.76s WALL (       1 calls)
     electrons    :    277.93s CPU    288.97s WALL (       1 calls)
     forces       :      1.52s CPU      1.69s WALL (       1 calls)
     stress       :      2.60s CPU      2.64s WALL (       1 calls)

     Called by init_run:
     wfcinit      :      7.23s CPU      7.62s WALL (       1 calls)
     potinit      :      0.07s CPU      0.07s WALL (       1 calls)
     hinit0       :      0.03s CPU      0.06s WALL (       1 calls)

     Called by electrons:
     c_bands      :    252.72s CPU    261.81s WALL (      22 calls)
     sum_band     :     23.62s CPU     25.52s WALL (      22 calls)
     v_of_rho     :      0.05s CPU      0.07s WALL (      23 calls)
     newd         :      0.05s CPU      0.05s WALL (      23 calls)
     PAW_pot      :      1.50s CPU      1.51s WALL (      23 calls)
     mix_rho      :      0.03s CPU      0.03s WALL (      22 calls)

     Called by c_bands:
     init_us_2    :      2.17s CPU      2.24s WALL (    8084 calls)
     cegterg      :    243.50s CPU    252.39s WALL (    3784 calls)

     Called by sum_band:
     sum_band:bec :      0.40s CPU      0.40s WALL (    3784 calls)
     addusdens    :      0.02s CPU      0.03s WALL (      22 calls)

     Called by *egterg:
     h_psi        :    113.07s CPU    120.32s WALL (   15979 calls)
     s_psi        :      9.79s CPU      9.88s WALL (   15979 calls)
     g_psi        :      0.62s CPU      0.63s WALL (   12023 calls)
     cdiaghg      :     99.46s CPU     99.70s WALL (   15807 calls)

     Called by h_psi:
     h_psi:pot    :    112.49s CPU    119.73s WALL (   15979 calls)
     h_psi:calbec :     14.51s CPU     16.94s WALL (   15979 calls)
     vloc_psi     :     87.33s CPU     92.03s WALL (   15979 calls)
     add_vuspsi   :     10.56s CPU     10.68s WALL (   15979 calls)

     General routines
     calbec       :     20.29s CPU     23.94s WALL (   20623 calls)
     fft          :      0.07s CPU      0.12s WALL (     279 calls)
     ffts         :      0.01s CPU      0.01s WALL (      22 calls)
     fftw         :     98.01s CPU    103.19s WALL ( 1359830 calls)
 
     Parallel routines
     fft_scatt_xy :      7.14s CPU      7.52s WALL ( 1360131 calls)
     fft_scatt_yz :     61.28s CPU     64.70s WALL ( 1360131 calls)
 
     PWSCF        :  4m51.87s CPU     5m 7.80s WALL

 
   This run was terminated on:   0:11:36  23Oct2019            

=------------------------------------------------------------------------------=
   JOB DONE.
=------------------------------------------------------------------------------=
