
     Program PWSCF v.6.3 starts on 23Oct2019 at  0:11:37 

     This program is part of the open-source Quantum ESPRESSO suite
     for quantum simulation of materials; please cite
         "P. Giannozzi et al., J. Phys.:Condens. Matter 21 395502 (2009);
         "P. Giannozzi et al., J. Phys.:Condens. Matter 29 465901 (2017);
          URL http://www.quantum-espresso.org", 
     in publications or presentations arising from this work. More details at
     http://www.quantum-espresso.org/quote

     Parallel version (MPI & OpenMP), running on      20 processor cores
     Number of MPI processes:                20
     Threads/MPI process:                     1

     MPI processes distributed on     1 nodes
     R & G space division:  proc/nbgrp/npool/nimage =      20
     Reading input from /rds/homes/b/bxp912/jobs/20191022_test2/wd/runpwscf/file_10250.in
Warning: card &IONS ignored
Warning: card ION_DYNAMICS = 'BFGS', ignored
Warning: card / ignored
Warning: card &CELL ignored
Warning: card CELL_DYNAMICS = 'BFGS', ignored
Warning: card CELL_FACTOR = 2.0, ignored
Warning: card PRESS = 0.0, ignored
Warning: card / ignored

     Current dimensions of program PWSCF are:
     Max number of different atomic species (ntypx) = 10
     Max number of k-points (npk) =  40000
     Max angular momentum in pseudopotentials (lmaxx) =  3
     Message from routine read_upf::
     Pseudo file /rds/homes/b/bxp912/pp/Al.pbe-nl-kjpaw_psl.1.0.0.UPF has been successfully fixed on the fly.
To avoid this message in the future you can permanently fix 
 your pseudo files following instructions given in: 
https://gitlab.com/QEF/q-e/blob/master/upftools/how_to_fix_upf.md
               file Al.pbe-nl-kjpaw_psl.1.0.0.UPF: wavefunction(s)  3S 3P renormalized

     Subspace diagonalization in iterative solution of the eigenvalue problem:
     a serial algorithm will be used

 
     Parallelization info
     --------------------
     sticks:   dense  smooth     PW     G-vecs:    dense   smooth      PW
     Min          52      52     20                 1262     1262     300
     Max          53      53     21                 1265     1265     303
     Sum        1041    1041    401                25269    25269    6031
 


     bravais-lattice index     =            0
     lattice parameter (alat)  =       8.0800  a.u.
     unit-cell volume          =     527.5141 (a.u.)^3
     number of atoms/cell      =           32
     number of atomic types    =            1
     number of electrons       =        96.00
     number of Kohn-Sham states=           58
     kinetic-energy cutoff     =      66.0000  Ry
     charge density cutoff     =     200.0000  Ry
     convergence threshold     =      1.0E-06
     mixing beta               =       0.1000
     number of iterations used =           10  TF        mixing
     Exchange-correlation      = SLA PW PBX PBC ( 1  4  3  4 0 0)

     celldm(1)=   8.080000  celldm(2)=   0.000000  celldm(3)=   0.000000
     celldm(4)=   0.000000  celldm(5)=   0.000000  celldm(6)=   0.000000

     crystal axes: (cart. coord. in units of alat)
               a(1) = (   1.000000   0.000000   0.000000 )  
               a(2) = (   0.000000   1.000000   0.000000 )  
               a(3) = (   0.000000   0.000000   1.000000 )  

     reciprocal axes: (cart. coord. in units 2 pi/alat)
               b(1) = (  1.000000  0.000000  0.000000 )  
               b(2) = (  0.000000  1.000000  0.000000 )  
               b(3) = (  0.000000  0.000000  1.000000 )  


     PseudoPot. # 1 for Al read from file:
     /rds/homes/b/bxp912/pp/Al.pbe-nl-kjpaw_psl.1.0.0.UPF
     MD5 check sum: 339dbea23cf3ab9a065ad45c0f9085d7
     Pseudo is Projector augmented-wave + core cor, Zval =  3.0
     Generated using "atomic" code by A. Dal Corso v.5.1
     Shape of augmentation charge: PSQ
     Using radial grid of 1135 points,  4 beta functions with: 
                l(1) =   0
                l(2) =   0
                l(3) =   1
                l(4) =   1
     Q(r) pseudized with 0 coefficients 


     atomic species   valence    mass     pseudopotential
        Al             3.00    26.98200     Al( 1.00)

     No symmetry found



   Cartesian axes

     site n.     atom                  positions (alat units)
         1           Al  tau(   1) = (  -0.0000618   0.0000180   0.0001286  )
         2           Al  tau(   2) = (   0.2501504   0.2496409   0.0001329  )
         3           Al  tau(   3) = (   0.2498245   0.0000576   0.2505585  )
         4           Al  tau(   4) = (  -0.0000378   0.2504134   0.2503472  )
         5           Al  tau(   5) = (   0.0004835   0.0004765   0.4997751  )
         6           Al  tau(   6) = (   0.2502257   0.2496836   0.5000068  )
         7           Al  tau(   7) = (   0.2500525   0.0002908   0.7497884  )
         8           Al  tau(   8) = (   0.0001038   0.2502148   0.7503971  )
         9           Al  tau(   9) = (   0.0004488   0.5002037  -0.0000292  )
        10           Al  tau(  10) = (   0.2502638   0.7503330   0.0007661  )
        11           Al  tau(  11) = (   0.2503574   0.5002057   0.2504745  )
        12           Al  tau(  12) = (   0.0000725   0.7500861   0.2500479  )
        13           Al  tau(  13) = (   0.0002082   0.5002952   0.5001871  )
        14           Al  tau(  14) = (   0.2499320   0.7501195   0.4997555  )
        15           Al  tau(  15) = (   0.2506361   0.4996019   0.7494255  )
        16           Al  tau(  16) = (  -0.0006199   0.7494434   0.7499870  )
        17           Al  tau(  17) = (   0.5003850  -0.0001898  -0.0000732  )
        18           Al  tau(  18) = (   0.7498343   0.2501778  -0.0004407  )
        19           Al  tau(  19) = (   0.7493109  -0.0001812   0.2501458  )
        20           Al  tau(  20) = (   0.4999530   0.2499270   0.2496819  )
        21           Al  tau(  21) = (   0.4998509   0.0005536   0.4999482  )
        22           Al  tau(  22) = (   0.7501292   0.2494251   0.4999098  )
        23           Al  tau(  23) = (   0.7500676  -0.0001298   0.7500485  )
        24           Al  tau(  24) = (   0.5000215   0.2497853   0.7499902  )
        25           Al  tau(  25) = (   0.4997214   0.5002185  -0.0004144  )
        26           Al  tau(  26) = (   0.7495697   0.7501849   0.0005172  )
        27           Al  tau(  27) = (   0.7501903   0.4996254   0.2498983  )
        28           Al  tau(  28) = (   0.5001659   0.7496046   0.2503955  )
        29           Al  tau(  29) = (   0.4993878   0.5001941   0.5000764  )
        30           Al  tau(  30) = (   0.7503133   0.7499759   0.4997253  )
        31           Al  tau(  31) = (   0.7499001   0.5000179   0.7502634  )
        32           Al  tau(  32) = (   0.5000268   0.7499029   0.7498445  )

     number of k points=   172  Marzari-Vanderbilt smearing, width (Ry)=  0.0050

     Number of k-points >= 100: set verbosity='high' to print them.

     Dense  grid:    25269 G-vectors     FFT dimensions: (  40,  40,  40)

     Estimated max dynamical RAM per process >      43.83 MB

     Estimated total dynamical RAM >     876.53 MB

     Initial potential from superposition of free atoms

     starting charge   95.92671, renormalised to   96.00000
     Starting wfcs are  128 randomized atomic wfcs
     Checking if some PAW data can be deallocated... 

     total cpu time spent up to now is        7.9 secs

     Self-consistent Calculation

     iteration #  1     ecut=    66.00 Ry     beta= 0.10
     Davidson diagonalization with overlap
     ethr =  1.00E-02,  avg # of iterations =  5.2

     total cpu time spent up to now is       29.5 secs

     total energy              =   -1133.16819619 Ry
     Harris-Foulkes estimate   =   -1134.40020170 Ry
     estimated scf accuracy    <       1.41841061 Ry

     iteration #  2     ecut=    66.00 Ry     beta= 0.10
     Davidson diagonalization with overlap
     ethr =  1.48E-03,  avg # of iterations =  3.9

     total cpu time spent up to now is       41.7 secs

     total energy              =   -1129.56999246 Ry
     Harris-Foulkes estimate   =   -1133.28375368 Ry
     estimated scf accuracy    <       1.23128579 Ry

     iteration #  3     ecut=    66.00 Ry     beta= 0.10
     Davidson diagonalization with overlap
     ethr =  1.28E-03,  avg # of iterations =  4.2

     total cpu time spent up to now is       59.4 secs

     total energy              =   -1130.09667611 Ry
     Harris-Foulkes estimate   =   -1130.52650713 Ry
     estimated scf accuracy    <       0.19870823 Ry

     iteration #  4     ecut=    66.00 Ry     beta= 0.10
     Davidson diagonalization with overlap
     ethr =  2.07E-04,  avg # of iterations =  2.6

     total cpu time spent up to now is       69.9 secs

     total energy              =   -1130.07135903 Ry
     Harris-Foulkes estimate   =   -1130.11266597 Ry
     estimated scf accuracy    <       0.12537805 Ry

     iteration #  5     ecut=    66.00 Ry     beta= 0.10
     Davidson diagonalization with overlap
     ethr =  1.31E-04,  avg # of iterations =  3.3

     total cpu time spent up to now is       85.0 secs

     total energy              =   -1130.03436276 Ry
     Harris-Foulkes estimate   =   -1130.11991216 Ry
     estimated scf accuracy    <       0.01676109 Ry

     iteration #  6     ecut=    66.00 Ry     beta= 0.10
     Davidson diagonalization with overlap
     c_bands:  1 eigenvalues not converged
     c_bands:  2 eigenvalues not converged
     c_bands:  1 eigenvalues not converged
     c_bands:  2 eigenvalues not converged
     c_bands:  1 eigenvalues not converged
     c_bands:  1 eigenvalues not converged
     c_bands:  3 eigenvalues not converged
     ethr =  1.75E-05,  avg # of iterations =  4.7

     total cpu time spent up to now is      101.2 secs

     total energy              =   -1130.03882140 Ry
     Harris-Foulkes estimate   =   -1130.04167475 Ry
     estimated scf accuracy    <       0.00561481 Ry

     iteration #  7     ecut=    66.00 Ry     beta= 0.10
     Davidson diagonalization with overlap
     c_bands:  1 eigenvalues not converged
     c_bands:  1 eigenvalues not converged
     c_bands:  1 eigenvalues not converged
     ethr =  5.85E-06,  avg # of iterations =  4.9

     total cpu time spent up to now is      115.5 secs

     total energy              =   -1130.04493567 Ry
     Harris-Foulkes estimate   =   -1130.05639755 Ry
     estimated scf accuracy    <       0.00444574 Ry

     iteration #  8     ecut=    66.00 Ry     beta= 0.10
     Davidson diagonalization with overlap
     c_bands:  1 eigenvalues not converged
     ethr =  4.63E-06,  avg # of iterations =  2.4

     total cpu time spent up to now is      125.3 secs

     total energy              =   -1130.04280636 Ry
     Harris-Foulkes estimate   =   -1130.04525572 Ry
     estimated scf accuracy    <       0.00173806 Ry

     iteration #  9     ecut=    66.00 Ry     beta= 0.10
     Davidson diagonalization with overlap
     c_bands:  2 eigenvalues not converged
     c_bands:  2 eigenvalues not converged
     c_bands:  2 eigenvalues not converged
     ethr =  1.81E-06,  avg # of iterations =  5.4

     total cpu time spent up to now is      140.3 secs

     total energy              =   -1130.04752450 Ry
     Harris-Foulkes estimate   =   -1130.04775506 Ry
     estimated scf accuracy    <       0.00043499 Ry

     iteration # 10     ecut=    66.00 Ry     beta= 0.10
     Davidson diagonalization with overlap
     c_bands:  2 eigenvalues not converged
     c_bands:  1 eigenvalues not converged
     c_bands:  2 eigenvalues not converged
     c_bands:  1 eigenvalues not converged
     c_bands:  2 eigenvalues not converged
     ethr =  4.53E-07,  avg # of iterations =  5.9

     total cpu time spent up to now is      156.5 secs

     total energy              =   -1130.04602682 Ry
     Harris-Foulkes estimate   =   -1130.04758074 Ry
     estimated scf accuracy    <       0.00035954 Ry

     iteration # 11     ecut=    66.00 Ry     beta= 0.10
     Davidson diagonalization with overlap
     c_bands:  1 eigenvalues not converged
     ethr =  3.75E-07,  avg # of iterations =  3.6

     total cpu time spent up to now is      168.8 secs

     total energy              =   -1130.04470970 Ry
     Harris-Foulkes estimate   =   -1130.04607506 Ry
     estimated scf accuracy    <       0.00015757 Ry

     iteration # 12     ecut=    66.00 Ry     beta= 0.10
     Davidson diagonalization with overlap
     ethr =  1.64E-07,  avg # of iterations =  4.7

     total cpu time spent up to now is      187.1 secs

     total energy              =   -1130.04429610 Ry
     Harris-Foulkes estimate   =   -1130.04478942 Ry
     estimated scf accuracy    <       0.00049163 Ry

     iteration # 13     ecut=    66.00 Ry     beta= 0.10
     Davidson diagonalization with overlap
     ethr =  1.64E-07,  avg # of iterations =  1.5

     total cpu time spent up to now is      195.6 secs

     total energy              =   -1130.04394162 Ry
     Harris-Foulkes estimate   =   -1130.04430839 Ry
     estimated scf accuracy    <       0.00025612 Ry

     iteration # 14     ecut=    66.00 Ry     beta= 0.10
     Davidson diagonalization with overlap
     ethr =  1.64E-07,  avg # of iterations =  3.3

     total cpu time spent up to now is      209.9 secs

     total energy              =   -1130.04399509 Ry
     Harris-Foulkes estimate   =   -1130.04398623 Ry
     estimated scf accuracy    <       0.00002710 Ry

     iteration # 15     ecut=    66.00 Ry     beta= 0.10
     Davidson diagonalization with overlap
     ethr =  2.82E-08,  avg # of iterations =  4.6

     total cpu time spent up to now is      224.4 secs

     total energy              =   -1130.04396975 Ry
     Harris-Foulkes estimate   =   -1130.04399985 Ry
     estimated scf accuracy    <       0.00002305 Ry

     iteration # 16     ecut=    66.00 Ry     beta= 0.10
     Davidson diagonalization with overlap
     c_bands:  2 eigenvalues not converged
     ethr =  2.40E-08,  avg # of iterations =  1.1

     total cpu time spent up to now is      232.7 secs

     total energy              =   -1130.04395785 Ry
     Harris-Foulkes estimate   =   -1130.04397103 Ry
     estimated scf accuracy    <       0.00000825 Ry

     iteration # 17     ecut=    66.00 Ry     beta= 0.10
     Davidson diagonalization with overlap
     ethr =  8.59E-09,  avg # of iterations =  4.1

     total cpu time spent up to now is      251.6 secs

     total energy              =   -1130.04395528 Ry
     Harris-Foulkes estimate   =   -1130.04396468 Ry
     estimated scf accuracy    <       0.00000349 Ry

     iteration # 18     ecut=    66.00 Ry     beta= 0.10
     Davidson diagonalization with overlap
     ethr =  3.64E-09,  avg # of iterations =  2.1

     total cpu time spent up to now is      261.4 secs

     total energy              =   -1130.04395505 Ry
     Harris-Foulkes estimate   =   -1130.04395574 Ry
     estimated scf accuracy    <       0.00000126 Ry

     iteration # 19     ecut=    66.00 Ry     beta= 0.10
     Davidson diagonalization with overlap
     ethr =  1.31E-09,  avg # of iterations =  4.3

     total cpu time spent up to now is      277.9 secs

     total energy              =   -1130.04395632 Ry
     Harris-Foulkes estimate   =   -1130.04395575 Ry
     estimated scf accuracy    <       0.00000646 Ry

     iteration # 20     ecut=    66.00 Ry     beta= 0.10
     Davidson diagonalization with overlap
     ethr =  1.31E-09,  avg # of iterations =  3.2

     total cpu time spent up to now is      289.3 secs

     total energy              =   -1130.04395615 Ry
     Harris-Foulkes estimate   =   -1130.04395654 Ry
     estimated scf accuracy    <       0.00000136 Ry

     iteration # 21     ecut=    66.00 Ry     beta= 0.10
     Davidson diagonalization with overlap
     ethr =  1.31E-09,  avg # of iterations =  3.8

     total cpu time spent up to now is      302.4 secs

     End of self-consistent calculation

     Number of k-points >= 100: set verbosity='high' to print the bands.

     the Fermi energy is    52.7125 ev

!    total energy              =   -1130.04395430 Ry
     Harris-Foulkes estimate   =   -1130.04395637 Ry
     estimated scf accuracy    <       0.00000018 Ry

     total all-electron energy =    -15406.612976 Ry

     The total energy is the sum of the following terms:

     one-electron contribution =     469.13840743 Ry
     hartree contribution      =       1.75420296 Ry
     xc contribution           =    -138.28838894 Ry
     ewald contribution        =    -326.84024986 Ry
     one-center paw contrib.   =   -1135.80693876 Ry
     smearing contrib. (-TS)   =      -0.00098714 Ry

     convergence has been achieved in  21 iterations

     Forces acting on atoms (cartesian axes, Ry/au):

     atom    1 type  1   force =    -0.00378537   -0.00392675    0.00097640
     atom    2 type  1   force =    -0.00494554   -0.00227540    0.01329952
     atom    3 type  1   force =     0.01346951    0.00114922   -0.02040505
     atom    4 type  1   force =    -0.00696127    0.00291609   -0.02335558
     atom    5 type  1   force =    -0.01405260   -0.01298041    0.01644924
     atom    6 type  1   force =    -0.01051253    0.01128650   -0.00680457
     atom    7 type  1   force =    -0.01507934   -0.03154405    0.01269124
     atom    8 type  1   force =    -0.00579988    0.01002023   -0.00453916
     atom    9 type  1   force =     0.02034045    0.00532269   -0.00132537
     atom   10 type  1   force =    -0.00597720    0.01001524   -0.02735165
     atom   11 type  1   force =    -0.00997418   -0.01849443   -0.01217934
     atom   12 type  1   force =    -0.01556891   -0.00511881   -0.01052091
     atom   13 type  1   force =    -0.00449123   -0.01725541    0.00642256
     atom   14 type  1   force =    -0.01035459    0.02043142    0.01914357
     atom   15 type  1   force =    -0.01750602    0.01429033    0.01722349
     atom   16 type  1   force =     0.02414014    0.01110723    0.01475991
     atom   17 type  1   force =    -0.01745829   -0.00470433   -0.00123196
     atom   18 type  1   force =     0.01051396   -0.00346048    0.01444267
     atom   19 type  1   force =     0.01948696    0.01300242   -0.00401790
     atom   20 type  1   force =     0.00625029    0.02121448   -0.01022792
     atom   21 type  1   force =     0.00414163   -0.02226308    0.00994163
     atom   22 type  1   force =    -0.00246317    0.02293419    0.01260336
     atom   23 type  1   force =     0.01335744   -0.00929081   -0.01249037
     atom   24 type  1   force =     0.01451244    0.00481430    0.00415695
     atom   25 type  1   force =    -0.01201699   -0.00044288    0.00551757
     atom   26 type  1   force =     0.01110681   -0.00854104    0.00419416
     atom   27 type  1   force =    -0.00821291   -0.00800200    0.00313260
     atom   28 type  1   force =     0.00507606    0.00005083    0.00587137
     atom   29 type  1   force =     0.03863241   -0.01868922    0.00213983
     atom   30 type  1   force =    -0.00427007    0.00797288   -0.00133643
     atom   31 type  1   force =    -0.01135580   -0.00535208   -0.01682359
     atom   32 type  1   force =    -0.00024218    0.01581312   -0.01035629

     Total force =     0.127622     Total SCF correction =     0.000791


     Computing stress (Cartesian axis) and pressure

          total   stress  (Ry/bohr**3)                   (kbar)     P=59588.90
   0.40507638   0.00000052   0.00000064      59588.78      0.08      0.09
   0.00000052   0.40507814  -0.00000097          0.08  59589.04     -0.14
   0.00000064  -0.00000097   0.40507699          0.09     -0.14  59588.87


     Writing output data file fe_scf_fcc_2.save/
 
     init_run     :      7.00s CPU      7.40s WALL (       1 calls)
     electrons    :    283.59s CPU    294.42s WALL (       1 calls)
     forces       :      1.57s CPU      1.72s WALL (       1 calls)
     stress       :      2.60s CPU      2.64s WALL (       1 calls)

     Called by init_run:
     wfcinit      :      6.87s CPU      7.23s WALL (       1 calls)
     potinit      :      0.06s CPU      0.07s WALL (       1 calls)
     hinit0       :      0.05s CPU      0.08s WALL (       1 calls)

     Called by electrons:
     c_bands      :    259.40s CPU    268.38s WALL (      21 calls)
     sum_band     :     22.68s CPU     24.49s WALL (      21 calls)
     v_of_rho     :      0.05s CPU      0.07s WALL (      22 calls)
     newd         :      0.05s CPU      0.05s WALL (      22 calls)
     PAW_pot      :      1.43s CPU      1.44s WALL (      22 calls)
     mix_rho      :      0.02s CPU      0.03s WALL (      21 calls)

     Called by c_bands:
     init_us_2    :      2.02s CPU      2.08s WALL (    7740 calls)
     cegterg      :    250.59s CPU    259.35s WALL (    3612 calls)

     Called by sum_band:
     sum_band:bec :      0.39s CPU      0.40s WALL (    3612 calls)
     addusdens    :      0.02s CPU      0.02s WALL (      21 calls)

     Called by *egterg:
     h_psi        :    109.78s CPU    116.97s WALL (   17327 calls)
     s_psi        :      9.81s CPU      9.90s WALL (   17327 calls)
     g_psi        :      0.63s CPU      0.64s WALL (   13543 calls)
     cdiaghg      :    109.01s CPU    109.31s WALL (   17155 calls)

     Called by h_psi:
     h_psi:pot    :    109.20s CPU    116.38s WALL (   17327 calls)
     h_psi:calbec :     14.51s CPU     16.90s WALL (   17327 calls)
     vloc_psi     :     84.02s CPU     88.69s WALL (   17327 calls)
     add_vuspsi   :     10.57s CPU     10.71s WALL (   17327 calls)

     General routines
     calbec       :     20.20s CPU     23.69s WALL (   21799 calls)
     fft          :      0.09s CPU      0.14s WALL (     268 calls)
     ffts         :      0.00s CPU      0.01s WALL (      21 calls)
     fftw         :     93.95s CPU     99.11s WALL ( 1337472 calls)
 
     Parallel routines
     fft_scatt_xy :      7.06s CPU      7.47s WALL ( 1337761 calls)
     fft_scatt_yz :     57.54s CPU     60.96s WALL ( 1337761 calls)
 
     PWSCF        :  4m57.04s CPU     5m 9.19s WALL

 
   This run was terminated on:   0:16:46  23Oct2019            

=------------------------------------------------------------------------------=
   JOB DONE.
=------------------------------------------------------------------------------=
