--------------------------------------------------------------------------
WARNING: There was an error initializing an OpenFabrics device.

  Local host:   bear-pg0211u05b
  Local device: mlx5_0
--------------------------------------------------------------------------

     Program PWSCF v.6.3 starts on 23Oct2019 at 12: 9:17 

     This program is part of the open-source Quantum ESPRESSO suite
     for quantum simulation of materials; please cite
         "P. Giannozzi et al., J. Phys.:Condens. Matter 21 395502 (2009);
         "P. Giannozzi et al., J. Phys.:Condens. Matter 29 465901 (2017);
          URL http://www.quantum-espresso.org", 
     in publications or presentations arising from this work. More details at
     http://www.quantum-espresso.org/quote

     Parallel version (MPI & OpenMP), running on      20 processor cores
     Number of MPI processes:                20
     Threads/MPI process:                     1

     MPI processes distributed on     1 nodes
     R & G space division:  proc/nbgrp/npool/nimage =      20
     Reading input from /rds/homes/b/bxp912/jobs/20191022_test2/wd/runpwscf/file_10256.in
Warning: card &IONS ignored
Warning: card ION_DYNAMICS = 'BFGS', ignored
Warning: card / ignored
Warning: card &CELL ignored
Warning: card CELL_DYNAMICS = 'BFGS', ignored
Warning: card CELL_FACTOR = 2.0, ignored
Warning: card PRESS = 0.0, ignored
Warning: card / ignored

     Current dimensions of program PWSCF are:
     Max number of different atomic species (ntypx) = 10
     Max number of k-points (npk) =  40000
     Max angular momentum in pseudopotentials (lmaxx) =  3
     Message from routine read_upf::
     Pseudo file /rds/homes/b/bxp912/pp/Al.pbe-nl-kjpaw_psl.1.0.0.UPF has been successfully fixed on the fly.
To avoid this message in the future you can permanently fix 
 your pseudo files following instructions given in: 
https://gitlab.com/QEF/q-e/blob/master/upftools/how_to_fix_upf.md
               file Al.pbe-nl-kjpaw_psl.1.0.0.UPF: wavefunction(s)  3S 3P renormalized

     Subspace diagonalization in iterative solution of the eigenvalue problem:
     a serial algorithm will be used

 
     Parallelization info
     --------------------
     sticks:   dense  smooth     PW     G-vecs:    dense   smooth      PW
     Min          52      52     20                 1262     1262     300
     Max          53      53     21                 1265     1265     303
     Sum        1041    1041    401                25269    25269    6031
 


     bravais-lattice index     =            0
     lattice parameter (alat)  =       8.0800  a.u.
     unit-cell volume          =     527.5141 (a.u.)^3
     number of atoms/cell      =           32
     number of atomic types    =            1
     number of electrons       =        96.00
     number of Kohn-Sham states=           58
     kinetic-energy cutoff     =      66.0000  Ry
     charge density cutoff     =     200.0000  Ry
     convergence threshold     =      1.0E-06
     mixing beta               =       0.1000
     number of iterations used =           10  TF        mixing
     Exchange-correlation      = SLA PW PBX PBC ( 1  4  3  4 0 0)

     celldm(1)=   8.080000  celldm(2)=   0.000000  celldm(3)=   0.000000
     celldm(4)=   0.000000  celldm(5)=   0.000000  celldm(6)=   0.000000

     crystal axes: (cart. coord. in units of alat)
               a(1) = (   1.000000   0.000000   0.000000 )  
               a(2) = (   0.000000   1.000000   0.000000 )  
               a(3) = (   0.000000   0.000000   1.000000 )  

     reciprocal axes: (cart. coord. in units 2 pi/alat)
               b(1) = (  1.000000  0.000000  0.000000 )  
               b(2) = (  0.000000  1.000000  0.000000 )  
               b(3) = (  0.000000  0.000000  1.000000 )  


     PseudoPot. # 1 for Al read from file:
     /rds/homes/b/bxp912/pp/Al.pbe-nl-kjpaw_psl.1.0.0.UPF
     MD5 check sum: 339dbea23cf3ab9a065ad45c0f9085d7
     Pseudo is Projector augmented-wave + core cor, Zval =  3.0
     Generated using "atomic" code by A. Dal Corso v.5.1
     Shape of augmentation charge: PSQ
     Using radial grid of 1135 points,  4 beta functions with: 
                l(1) =   0
                l(2) =   0
                l(3) =   1
                l(4) =   1
     Q(r) pseudized with 0 coefficients 


     atomic species   valence    mass     pseudopotential
        Al             3.00    26.98200     Al( 1.00)

     No symmetry found



   Cartesian axes

     site n.     atom                  positions (alat units)
         1           Al  tau(   1) = (  -0.0000618   0.0000180   0.0001286  )
         2           Al  tau(   2) = (   0.2501504   0.2496409   0.0001329  )
         3           Al  tau(   3) = (   0.2498245   0.0000576   0.2505585  )
         4           Al  tau(   4) = (  -0.0000378   0.2504134   0.2503472  )
         5           Al  tau(   5) = (   0.0004835   0.0004765   0.4997751  )
         6           Al  tau(   6) = (   0.2502257   0.2496836   0.5000068  )
         7           Al  tau(   7) = (   0.2500525   0.0002908   0.7497884  )
         8           Al  tau(   8) = (   0.0001038   0.2502148   0.7503971  )
         9           Al  tau(   9) = (   0.0004488   0.5002037  -0.0000292  )
        10           Al  tau(  10) = (   0.2502638   0.7503330   0.0007661  )
        11           Al  tau(  11) = (   0.2503574   0.5002057   0.2504745  )
        12           Al  tau(  12) = (   0.0000725   0.7500861   0.2500479  )
        13           Al  tau(  13) = (   0.0002082   0.5002952   0.5001871  )
        14           Al  tau(  14) = (   0.2499320   0.7501195   0.4997555  )
        15           Al  tau(  15) = (   0.2506361   0.4996019   0.7494255  )
        16           Al  tau(  16) = (  -0.0006199   0.7494434   0.7499870  )
        17           Al  tau(  17) = (   0.5003850  -0.0001898  -0.0000732  )
        18           Al  tau(  18) = (   0.7498343   0.2501778  -0.0004407  )
        19           Al  tau(  19) = (   0.7493109  -0.0001812   0.2501458  )
        20           Al  tau(  20) = (   0.4999530   0.2499270   0.2496819  )
        21           Al  tau(  21) = (   0.4998509   0.0005536   0.4999482  )
        22           Al  tau(  22) = (   0.7501292   0.2494251   0.4999098  )
        23           Al  tau(  23) = (   0.7500676  -0.0001298   0.7500485  )
        24           Al  tau(  24) = (   0.5000215   0.2497853   0.7499902  )
        25           Al  tau(  25) = (   0.4997214   0.5002185  -0.0004144  )
        26           Al  tau(  26) = (   0.7495697   0.7501849   0.0005172  )
        27           Al  tau(  27) = (   0.7501903   0.4996254   0.2498983  )
        28           Al  tau(  28) = (   0.5001659   0.7496046   0.2503955  )
        29           Al  tau(  29) = (   0.4993878   0.5001941   0.5000764  )
        30           Al  tau(  30) = (   0.7503133   0.7499759   0.4997253  )
        31           Al  tau(  31) = (   0.7499001   0.5000179   0.7502634  )
        32           Al  tau(  32) = (   0.5000268   0.7499029   0.7498445  )

     number of k points=   172  Marzari-Vanderbilt smearing, width (Ry)=  0.0500

     Number of k-points >= 100: set verbosity='high' to print them.

     Dense  grid:    25269 G-vectors     FFT dimensions: (  40,  40,  40)

     Estimated max dynamical RAM per process >      43.83 MB

     Estimated total dynamical RAM >     876.53 MB

     Initial potential from superposition of free atoms

     starting charge   95.92671, renormalised to   96.00000
     Starting wfcs are  128 randomized atomic wfcs
     Checking if some PAW data can be deallocated... 

     total cpu time spent up to now is        6.4 secs

     Self-consistent Calculation

     iteration #  1     ecut=    66.00 Ry     beta= 0.10
     Davidson diagonalization with overlap
     ethr =  1.00E-02,  avg # of iterations =  5.2

     total cpu time spent up to now is       23.7 secs

     total energy              =   -1133.17102503 Ry
     Harris-Foulkes estimate   =   -1134.41200250 Ry
     estimated scf accuracy    <       1.41352499 Ry

     iteration #  2     ecut=    66.00 Ry     beta= 0.10
     Davidson diagonalization with overlap
     ethr =  1.47E-03,  avg # of iterations =  4.4

     total cpu time spent up to now is       34.9 secs

     total energy              =   -1129.58059717 Ry
     Harris-Foulkes estimate   =   -1133.28250832 Ry
     estimated scf accuracy    <       1.22777855 Ry

     iteration #  3     ecut=    66.00 Ry     beta= 0.10
     Davidson diagonalization with overlap
     ethr =  1.28E-03,  avg # of iterations =  4.5

     total cpu time spent up to now is       50.2 secs

     total energy              =   -1130.12058188 Ry
     Harris-Foulkes estimate   =   -1130.61668490 Ry
     estimated scf accuracy    <       0.20634578 Ry

     iteration #  4     ecut=    66.00 Ry     beta= 0.10
     Davidson diagonalization with overlap
     ethr =  2.15E-04,  avg # of iterations =  2.0

     total cpu time spent up to now is       58.3 secs

     total energy              =   -1130.03693314 Ry
     Harris-Foulkes estimate   =   -1130.13749435 Ry
     estimated scf accuracy    <       0.12520862 Ry

     iteration #  5     ecut=    66.00 Ry     beta= 0.10
     Davidson diagonalization with overlap
     c_bands:  2 eigenvalues not converged
     c_bands:  2 eigenvalues not converged
     ethr =  1.30E-04,  avg # of iterations =  4.4

     total cpu time spent up to now is       72.7 secs

     total energy              =   -1130.04333093 Ry
     Harris-Foulkes estimate   =   -1130.09061293 Ry
     estimated scf accuracy    <       0.01869025 Ry

     iteration #  6     ecut=    66.00 Ry     beta= 0.10
     Davidson diagonalization with overlap
     ethr =  1.95E-05,  avg # of iterations =  3.9

     total cpu time spent up to now is       83.3 secs

     total energy              =   -1130.05645054 Ry
     Harris-Foulkes estimate   =   -1130.06016278 Ry
     estimated scf accuracy    <       0.01179983 Ry

     iteration #  7     ecut=    66.00 Ry     beta= 0.10
     Davidson diagonalization with overlap
     ethr =  1.23E-05,  avg # of iterations =  1.0

     total cpu time spent up to now is       89.8 secs

     total energy              =   -1130.03171018 Ry
     Harris-Foulkes estimate   =   -1130.05668012 Ry
     estimated scf accuracy    <       0.00839937 Ry

     iteration #  8     ecut=    66.00 Ry     beta= 0.10
     Davidson diagonalization with overlap
     c_bands:  1 eigenvalues not converged
     c_bands:  1 eigenvalues not converged
     c_bands:  2 eigenvalues not converged
     c_bands:  2 eigenvalues not converged
     c_bands:  1 eigenvalues not converged
     ethr =  8.75E-06,  avg # of iterations =  5.9

     total cpu time spent up to now is      107.7 secs

     total energy              =   -1130.03864571 Ry
     Harris-Foulkes estimate   =   -1130.03844101 Ry
     estimated scf accuracy    <       0.00033412 Ry

     iteration #  9     ecut=    66.00 Ry     beta= 0.10
     Davidson diagonalization with overlap
     c_bands:  1 eigenvalues not converged
     c_bands:  1 eigenvalues not converged
     c_bands:  2 eigenvalues not converged
     c_bands:  2 eigenvalues not converged
     c_bands:  1 eigenvalues not converged
     c_bands:  2 eigenvalues not converged
     c_bands:  2 eigenvalues not converged
     c_bands:  2 eigenvalues not converged
     c_bands:  1 eigenvalues not converged
     ethr =  3.48E-07,  avg # of iterations =  9.4

     total cpu time spent up to now is      129.4 secs

     total energy              =   -1130.04481492 Ry
     Harris-Foulkes estimate   =   -1130.04442352 Ry
     estimated scf accuracy    <       0.00042027 Ry

     iteration # 10     ecut=    66.00 Ry     beta= 0.10
     Davidson diagonalization with overlap
     c_bands:  1 eigenvalues not converged
     c_bands:  1 eigenvalues not converged
     ethr =  3.48E-07,  avg # of iterations =  2.1

     total cpu time spent up to now is      136.9 secs

     total energy              =   -1130.04267586 Ry
     Harris-Foulkes estimate   =   -1130.04481792 Ry
     estimated scf accuracy    <       0.00039227 Ry

     iteration # 11     ecut=    66.00 Ry     beta= 0.10
     Davidson diagonalization with overlap
     ethr =  3.48E-07,  avg # of iterations =  5.1

     total cpu time spent up to now is      154.4 secs

     total energy              =   -1130.04264944 Ry
     Harris-Foulkes estimate   =   -1130.04285567 Ry
     estimated scf accuracy    <       0.00217853 Ry

     iteration # 12     ecut=    66.00 Ry     beta= 0.10
     Davidson diagonalization with overlap
     ethr =  3.48E-07,  avg # of iterations =  1.0

     total cpu time spent up to now is      160.8 secs

     total energy              =   -1130.04259227 Ry
     Harris-Foulkes estimate   =   -1130.04265376 Ry
     estimated scf accuracy    <       0.00234054 Ry

     iteration # 13     ecut=    66.00 Ry     beta= 0.10
     Davidson diagonalization with overlap
     ethr =  3.48E-07,  avg # of iterations =  3.5

     total cpu time spent up to now is      172.4 secs

     total energy              =   -1130.04273224 Ry
     Harris-Foulkes estimate   =   -1130.04267979 Ry
     estimated scf accuracy    <       0.00350472 Ry

     iteration # 14     ecut=    66.00 Ry     beta= 0.10
     Davidson diagonalization with overlap
     ethr =  3.48E-07,  avg # of iterations =  1.0

     total cpu time spent up to now is      179.2 secs

     total energy              =   -1130.04275805 Ry
     Harris-Foulkes estimate   =   -1130.04273637 Ry
     estimated scf accuracy    <       0.00378013 Ry

     iteration # 15     ecut=    66.00 Ry     beta= 0.10
     Davidson diagonalization with overlap
     ethr =  3.48E-07,  avg # of iterations =  1.0

     total cpu time spent up to now is      185.6 secs

     total energy              =   -1130.04290629 Ry
     Harris-Foulkes estimate   =   -1130.04276078 Ry
     estimated scf accuracy    <       0.00418348 Ry

     iteration # 16     ecut=    66.00 Ry     beta= 0.10
     Davidson diagonalization with overlap
     ethr =  3.48E-07,  avg # of iterations =  1.0

     total cpu time spent up to now is      192.0 secs

     total energy              =   -1130.04293176 Ry
     Harris-Foulkes estimate   =   -1130.04291287 Ry
     estimated scf accuracy    <       0.00500216 Ry

     iteration # 17     ecut=    66.00 Ry     beta= 0.10
     Davidson diagonalization with overlap
     ethr =  3.48E-07,  avg # of iterations =  1.0

     total cpu time spent up to now is      198.4 secs

     total energy              =   -1130.04310989 Ry
     Harris-Foulkes estimate   =   -1130.04293394 Ry
     estimated scf accuracy    <       0.00511640 Ry

     iteration # 18     ecut=    66.00 Ry     beta= 0.10
     Davidson diagonalization with overlap
     ethr =  3.48E-07,  avg # of iterations =  1.2

     total cpu time spent up to now is      205.1 secs

     total energy              =   -1130.04275682 Ry
     Harris-Foulkes estimate   =   -1130.04311516 Ry
     estimated scf accuracy    <       0.00567442 Ry

     iteration # 19     ecut=    66.00 Ry     beta= 0.10
     Davidson diagonalization with overlap
     ethr =  3.48E-07,  avg # of iterations =  1.1

     total cpu time spent up to now is      212.0 secs

     total energy              =   -1130.04186701 Ry
     Harris-Foulkes estimate   =   -1130.04277575 Ry
     estimated scf accuracy    <       0.00395826 Ry

     iteration # 20     ecut=    66.00 Ry     beta= 0.10
     Davidson diagonalization with overlap
     ethr =  3.48E-07,  avg # of iterations =  5.2

     total cpu time spent up to now is      229.9 secs

     total energy              =   -1130.04227130 Ry
     Harris-Foulkes estimate   =   -1130.04228861 Ry
     estimated scf accuracy    <       0.00011158 Ry

     iteration # 21     ecut=    66.00 Ry     beta= 0.10
     Davidson diagonalization with overlap
     ethr =  1.16E-07,  avg # of iterations =  1.0

     total cpu time spent up to now is      236.8 secs

     total energy              =   -1130.04226946 Ry
     Harris-Foulkes estimate   =   -1130.04227369 Ry
     estimated scf accuracy    <       0.00004377 Ry

     iteration # 22     ecut=    66.00 Ry     beta= 0.10
     Davidson diagonalization with overlap
     ethr =  4.56E-08,  avg # of iterations =  1.6

     total cpu time spent up to now is      243.8 secs

     total energy              =   -1130.04227473 Ry
     Harris-Foulkes estimate   =   -1130.04227129 Ry
     estimated scf accuracy    <       0.00001267 Ry

     iteration # 23     ecut=    66.00 Ry     beta= 0.10
     Davidson diagonalization with overlap
     ethr =  1.32E-08,  avg # of iterations =  4.5

     total cpu time spent up to now is      255.3 secs

     End of self-consistent calculation

     Number of k-points >= 100: set verbosity='high' to print the bands.

     the Fermi energy is    52.7869 ev

!    total energy              =   -1130.04226929 Ry
     Harris-Foulkes estimate   =   -1130.04227628 Ry
     estimated scf accuracy    <       0.00000075 Ry

     total all-electron energy =    -15406.611291 Ry

     The total energy is the sum of the following terms:

     one-electron contribution =     469.18144408 Ry
     hartree contribution      =       1.75331526 Ry
     xc contribution           =    -138.29230147 Ry
     ewald contribution        =    -326.84024986 Ry
     one-center paw contrib.   =   -1135.83277158 Ry
     smearing contrib. (-TS)   =      -0.01170572 Ry

     convergence has been achieved in  23 iterations

     Forces acting on atoms (cartesian axes, Ry/au):

     atom    1 type  1   force =    -0.00330225   -0.00412658    0.00126348
     atom    2 type  1   force =    -0.00430182   -0.00179635    0.01298643
     atom    3 type  1   force =     0.01350783    0.00142384   -0.02022933
     atom    4 type  1   force =    -0.00649481    0.00288520   -0.02347905
     atom    5 type  1   force =    -0.01471394   -0.01296060    0.01623999
     atom    6 type  1   force =    -0.01041673    0.01114412   -0.00667076
     atom    7 type  1   force =    -0.01454793   -0.03165127    0.01233161
     atom    8 type  1   force =    -0.00569157    0.00957727   -0.00476596
     atom    9 type  1   force =     0.01984295    0.00513177   -0.00099910
     atom   10 type  1   force =    -0.00574565    0.00970194   -0.02722614
     atom   11 type  1   force =    -0.00943120   -0.01878340   -0.01224108
     atom   12 type  1   force =    -0.01540066   -0.00542488   -0.00968186
     atom   13 type  1   force =    -0.00429749   -0.01759682    0.00600758
     atom   14 type  1   force =    -0.00971574    0.02027814    0.01891945
     atom   15 type  1   force =    -0.01742023    0.01489154    0.01735533
     atom   16 type  1   force =     0.02469661    0.01178597    0.01411063
     atom   17 type  1   force =    -0.01779511   -0.00463765   -0.00090569
     atom   18 type  1   force =     0.00980399   -0.00346484    0.01481071
     atom   19 type  1   force =     0.01975005    0.01313058   -0.00387004
     atom   20 type  1   force =     0.00615896    0.02086993   -0.00931034
     atom   21 type  1   force =     0.00463534   -0.02242941    0.00964046
     atom   22 type  1   force =    -0.00262408    0.02351852    0.01233473
     atom   23 type  1   force =     0.01261231   -0.00903146   -0.01246433
     atom   24 type  1   force =     0.01416224    0.00477949    0.00373330
     atom   25 type  1   force =    -0.01178860   -0.00067286    0.00596033
     atom   26 type  1   force =     0.01090765   -0.00868472    0.00382560
     atom   27 type  1   force =    -0.00903376   -0.00762312    0.00356549
     atom   28 type  1   force =     0.00480773    0.00070502    0.00583942
     atom   29 type  1   force =     0.03840028   -0.01876821    0.00204141
     atom   30 type  1   force =    -0.00488865    0.00758501   -0.00117451
     atom   31 type  1   force =    -0.01124100   -0.00543780   -0.01727898
     atom   32 type  1   force =    -0.00043471    0.01568163   -0.01066879

     Total force =     0.127225     Total SCF correction =     0.001564


     Computing stress (Cartesian axis) and pressure

          total   stress  (Ry/bohr**3)                   (kbar)     P=59620.03
   0.40528813   0.00000011   0.00000076      59619.93      0.02      0.11
   0.00000011   0.40528862  -0.00000135          0.02  59620.00     -0.20
   0.00000076  -0.00000135   0.40528959          0.11     -0.20  59620.15


     Writing output data file fe_scf_fcc_2.save/
 
     init_run     :      5.70s CPU      5.97s WALL (       1 calls)
     electrons    :    240.31s CPU    249.14s WALL (       1 calls)
     forces       :      1.20s CPU      1.30s WALL (       1 calls)
     stress       :      2.23s CPU      2.25s WALL (       1 calls)

     Called by init_run:
     wfcinit      :      5.62s CPU      5.87s WALL (       1 calls)
     potinit      :      0.06s CPU      0.06s WALL (       1 calls)
     hinit0       :      0.01s CPU      0.02s WALL (       1 calls)

     Called by electrons:
     c_bands      :    218.90s CPU    226.21s WALL (      23 calls)
     sum_band     :     19.98s CPU     21.31s WALL (      23 calls)
     v_of_rho     :      0.05s CPU      0.07s WALL (      24 calls)
     newd         :      0.05s CPU      0.05s WALL (      24 calls)
     PAW_pot      :      1.34s CPU      1.34s WALL (      24 calls)
     mix_rho      :      0.03s CPU      0.03s WALL (      23 calls)

     Called by c_bands:
     init_us_2    :      2.15s CPU      2.23s WALL (    8428 calls)
     cegterg      :    210.49s CPU    217.59s WALL (    3956 calls)

     Called by sum_band:
     sum_band:bec :      0.28s CPU      0.32s WALL (    3956 calls)
     addusdens    :      0.02s CPU      0.03s WALL (      23 calls)

     Called by *egterg:
     h_psi        :     96.25s CPU    101.96s WALL (   16338 calls)
     s_psi        :      7.43s CPU      7.52s WALL (   16338 calls)
     g_psi        :      0.35s CPU      0.35s WALL (   12210 calls)
     cdiaghg      :     90.31s CPU     90.77s WALL (   16166 calls)

     Called by h_psi:
     h_psi:pot    :     95.79s CPU    101.50s WALL (   16338 calls)
     h_psi:calbec :      9.74s CPU     11.06s WALL (   16338 calls)
     vloc_psi     :     78.34s CPU     82.47s WALL (   16338 calls)
     add_vuspsi   :      7.63s CPU      7.90s WALL (   16338 calls)

     General routines
     calbec       :     13.70s CPU     15.62s WALL (   21154 calls)
     fft          :      0.05s CPU      0.07s WALL (     290 calls)
     ffts         :      0.01s CPU      0.01s WALL (      23 calls)
     fftw         :     87.99s CPU     92.58s WALL ( 1428656 calls)
 
     Parallel routines
     fft_scatt_xy :      6.64s CPU      6.99s WALL ( 1428969 calls)
     fft_scatt_yz :     57.06s CPU     60.05s WALL ( 1428969 calls)
 
     PWSCF        :  4m11.21s CPU     4m21.70s WALL

 
   This run was terminated on:  12:13:39  23Oct2019            

=------------------------------------------------------------------------------=
   JOB DONE.
=------------------------------------------------------------------------------=
