
     Program PWSCF v.6.3 starts on 23Oct2019 at  0: 1:25 

     This program is part of the open-source Quantum ESPRESSO suite
     for quantum simulation of materials; please cite
         "P. Giannozzi et al., J. Phys.:Condens. Matter 21 395502 (2009);
         "P. Giannozzi et al., J. Phys.:Condens. Matter 29 465901 (2017);
          URL http://www.quantum-espresso.org", 
     in publications or presentations arising from this work. More details at
     http://www.quantum-espresso.org/quote

     Parallel version (MPI & OpenMP), running on      20 processor cores
     Number of MPI processes:                20
     Threads/MPI process:                     1

     MPI processes distributed on     1 nodes
     R & G space division:  proc/nbgrp/npool/nimage =      20
     Reading input from /rds/homes/b/bxp912/jobs/20191022_test2/wd/runpwscf/file_10247.in
Warning: card &IONS ignored
Warning: card ION_DYNAMICS = 'BFGS', ignored
Warning: card / ignored
Warning: card &CELL ignored
Warning: card CELL_DYNAMICS = 'BFGS', ignored
Warning: card CELL_FACTOR = 2.0, ignored
Warning: card PRESS = 0.0, ignored
Warning: card / ignored

     Current dimensions of program PWSCF are:
     Max number of different atomic species (ntypx) = 10
     Max number of k-points (npk) =  40000
     Max angular momentum in pseudopotentials (lmaxx) =  3
     Message from routine read_upf::
     Pseudo file /rds/homes/b/bxp912/pp/Al.pbe-nl-kjpaw_psl.1.0.0.UPF has been successfully fixed on the fly.
To avoid this message in the future you can permanently fix 
 your pseudo files following instructions given in: 
https://gitlab.com/QEF/q-e/blob/master/upftools/how_to_fix_upf.md
               file Al.pbe-nl-kjpaw_psl.1.0.0.UPF: wavefunction(s)  3S 3P renormalized

     Subspace diagonalization in iterative solution of the eigenvalue problem:
     a serial algorithm will be used

 
     Parallelization info
     --------------------
     sticks:   dense  smooth     PW     G-vecs:    dense   smooth      PW
     Min          52      52     20                 1262     1262     300
     Max          53      53     21                 1265     1265     303
     Sum        1041    1041    401                25269    25269    6031
 


     bravais-lattice index     =            0
     lattice parameter (alat)  =       8.0800  a.u.
     unit-cell volume          =     527.5141 (a.u.)^3
     number of atoms/cell      =           32
     number of atomic types    =            1
     number of electrons       =        96.00
     number of Kohn-Sham states=           58
     kinetic-energy cutoff     =      66.0000  Ry
     charge density cutoff     =     200.0000  Ry
     convergence threshold     =      1.0E-06
     mixing beta               =       0.1000
     number of iterations used =           10  TF        mixing
     Exchange-correlation      = SLA PW PBX PBC ( 1  4  3  4 0 0)

     celldm(1)=   8.080000  celldm(2)=   0.000000  celldm(3)=   0.000000
     celldm(4)=   0.000000  celldm(5)=   0.000000  celldm(6)=   0.000000

     crystal axes: (cart. coord. in units of alat)
               a(1) = (   1.000000   0.000000   0.000000 )  
               a(2) = (   0.000000   1.000000   0.000000 )  
               a(3) = (   0.000000   0.000000   1.000000 )  

     reciprocal axes: (cart. coord. in units 2 pi/alat)
               b(1) = (  1.000000  0.000000  0.000000 )  
               b(2) = (  0.000000  1.000000  0.000000 )  
               b(3) = (  0.000000  0.000000  1.000000 )  


     PseudoPot. # 1 for Al read from file:
     /rds/homes/b/bxp912/pp/Al.pbe-nl-kjpaw_psl.1.0.0.UPF
     MD5 check sum: 339dbea23cf3ab9a065ad45c0f9085d7
     Pseudo is Projector augmented-wave + core cor, Zval =  3.0
     Generated using "atomic" code by A. Dal Corso v.5.1
     Shape of augmentation charge: PSQ
     Using radial grid of 1135 points,  4 beta functions with: 
                l(1) =   0
                l(2) =   0
                l(3) =   1
                l(4) =   1
     Q(r) pseudized with 0 coefficients 


     atomic species   valence    mass     pseudopotential
        Al             3.00    26.98200     Al( 1.00)

     No symmetry found



   Cartesian axes

     site n.     atom                  positions (alat units)
         1           Al  tau(   1) = (  -0.0000618   0.0000180   0.0001286  )
         2           Al  tau(   2) = (   0.2501504   0.2496409   0.0001329  )
         3           Al  tau(   3) = (   0.2498245   0.0000576   0.2505585  )
         4           Al  tau(   4) = (  -0.0000378   0.2504134   0.2503472  )
         5           Al  tau(   5) = (   0.0004835   0.0004765   0.4997751  )
         6           Al  tau(   6) = (   0.2502257   0.2496836   0.5000068  )
         7           Al  tau(   7) = (   0.2500525   0.0002908   0.7497884  )
         8           Al  tau(   8) = (   0.0001038   0.2502148   0.7503971  )
         9           Al  tau(   9) = (   0.0004488   0.5002037  -0.0000292  )
        10           Al  tau(  10) = (   0.2502638   0.7503330   0.0007661  )
        11           Al  tau(  11) = (   0.2503574   0.5002057   0.2504745  )
        12           Al  tau(  12) = (   0.0000725   0.7500861   0.2500479  )
        13           Al  tau(  13) = (   0.0002082   0.5002952   0.5001871  )
        14           Al  tau(  14) = (   0.2499320   0.7501195   0.4997555  )
        15           Al  tau(  15) = (   0.2506361   0.4996019   0.7494255  )
        16           Al  tau(  16) = (  -0.0006199   0.7494434   0.7499870  )
        17           Al  tau(  17) = (   0.5003850  -0.0001898  -0.0000732  )
        18           Al  tau(  18) = (   0.7498343   0.2501778  -0.0004407  )
        19           Al  tau(  19) = (   0.7493109  -0.0001812   0.2501458  )
        20           Al  tau(  20) = (   0.4999530   0.2499270   0.2496819  )
        21           Al  tau(  21) = (   0.4998509   0.0005536   0.4999482  )
        22           Al  tau(  22) = (   0.7501292   0.2494251   0.4999098  )
        23           Al  tau(  23) = (   0.7500676  -0.0001298   0.7500485  )
        24           Al  tau(  24) = (   0.5000215   0.2497853   0.7499902  )
        25           Al  tau(  25) = (   0.4997214   0.5002185  -0.0004144  )
        26           Al  tau(  26) = (   0.7495697   0.7501849   0.0005172  )
        27           Al  tau(  27) = (   0.7501903   0.4996254   0.2498983  )
        28           Al  tau(  28) = (   0.5001659   0.7496046   0.2503955  )
        29           Al  tau(  29) = (   0.4993878   0.5001941   0.5000764  )
        30           Al  tau(  30) = (   0.7503133   0.7499759   0.4997253  )
        31           Al  tau(  31) = (   0.7499001   0.5000179   0.7502634  )
        32           Al  tau(  32) = (   0.5000268   0.7499029   0.7498445  )

     number of k points=    63  Marzari-Vanderbilt smearing, width (Ry)=  0.0500
                       cart. coord. in units 2pi/alat
        k(    1) = (   0.1000000   0.1000000   0.1000000), wk =   0.0320000
        k(    2) = (   0.1000000   0.1000000   0.3000000), wk =   0.0320000
        k(    3) = (   0.1000000   0.1000000  -0.5000000), wk =   0.0320000
        k(    4) = (   0.1000000   0.3000000   0.3000000), wk =   0.0320000
        k(    5) = (   0.1000000   0.3000000  -0.5000000), wk =   0.0320000
        k(    6) = (   0.1000000  -0.5000000  -0.5000000), wk =   0.0320000
        k(    7) = (   0.3000000   0.3000000   0.3000000), wk =   0.0320000
        k(    8) = (   0.3000000   0.3000000  -0.5000000), wk =   0.0320000
        k(    9) = (   0.3000000  -0.5000000  -0.5000000), wk =   0.0320000
        k(   10) = (  -0.5000000  -0.5000000  -0.5000000), wk =   0.0160000
        k(   11) = (  -0.1000000  -0.1000000   0.1000000), wk =   0.0320000
        k(   12) = (  -0.1000000   0.1000000  -0.1000000), wk =   0.0320000
        k(   13) = (   0.1000000  -0.1000000  -0.1000000), wk =   0.0320000
        k(   14) = (  -0.1000000  -0.1000000   0.3000000), wk =   0.0320000
        k(   15) = (  -0.1000000   0.1000000  -0.3000000), wk =   0.0320000
        k(   16) = (   0.1000000  -0.1000000  -0.3000000), wk =   0.0320000
        k(   17) = (   0.3000000  -0.1000000   0.1000000), wk =   0.0320000
        k(   18) = (  -0.3000000  -0.1000000  -0.1000000), wk =   0.0320000
        k(   19) = (   0.3000000   0.1000000  -0.1000000), wk =   0.0320000
        k(   20) = (  -0.3000000   0.1000000   0.1000000), wk =   0.0320000
        k(   21) = (  -0.1000000   0.3000000   0.1000000), wk =   0.0320000
        k(   22) = (  -0.1000000  -0.3000000  -0.1000000), wk =   0.0320000
        k(   23) = (   0.1000000   0.3000000  -0.1000000), wk =   0.0320000
        k(   24) = (   0.1000000  -0.3000000   0.1000000), wk =   0.0320000
        k(   25) = (  -0.1000000   0.1000000   0.5000000), wk =   0.0320000
        k(   26) = (  -0.5000000  -0.1000000   0.1000000), wk =   0.0320000
        k(   27) = (   0.5000000  -0.1000000  -0.1000000), wk =   0.0320000
        k(   28) = (  -0.1000000  -0.5000000   0.1000000), wk =   0.0320000
        k(   29) = (  -0.1000000   0.5000000  -0.1000000), wk =   0.0320000
        k(   30) = (  -0.1000000  -0.3000000   0.3000000), wk =   0.0320000
        k(   31) = (  -0.1000000   0.3000000  -0.3000000), wk =   0.0320000
        k(   32) = (   0.1000000  -0.3000000  -0.3000000), wk =   0.0320000
        k(   33) = (   0.3000000   0.1000000  -0.3000000), wk =   0.0320000
        k(   34) = (  -0.3000000  -0.1000000  -0.3000000), wk =   0.0320000
        k(   35) = (   0.3000000  -0.1000000   0.3000000), wk =   0.0320000
        k(   36) = (  -0.3000000   0.1000000   0.3000000), wk =   0.0320000
        k(   37) = (   0.3000000  -0.3000000   0.1000000), wk =   0.0320000
        k(   38) = (  -0.3000000  -0.3000000  -0.1000000), wk =   0.0320000
        k(   39) = (   0.3000000   0.3000000  -0.1000000), wk =   0.0320000
        k(   40) = (  -0.3000000   0.3000000   0.1000000), wk =   0.0320000
        k(   41) = (  -0.1000000   0.3000000   0.5000000), wk =   0.0320000
        k(   42) = (   0.3000000   0.1000000   0.5000000), wk =   0.0320000
        k(   43) = (   0.3000000  -0.1000000  -0.5000000), wk =   0.0320000
        k(   44) = (  -0.5000000  -0.3000000   0.1000000), wk =   0.0320000
        k(   45) = (   0.5000000  -0.3000000  -0.1000000), wk =   0.0320000
        k(   46) = (  -0.1000000  -0.5000000   0.3000000), wk =   0.0320000
        k(   47) = (  -0.1000000   0.5000000  -0.3000000), wk =   0.0320000
        k(   48) = (   0.3000000  -0.5000000   0.1000000), wk =   0.0320000
        k(   49) = (   0.3000000   0.5000000  -0.1000000), wk =   0.0320000
        k(   50) = (  -0.5000000   0.1000000   0.3000000), wk =   0.0320000
        k(   51) = (   0.5000000  -0.1000000   0.3000000), wk =   0.0320000
        k(   52) = (  -0.5000000   0.1000000   0.5000000), wk =   0.0320000
        k(   53) = (  -0.5000000   0.5000000   0.1000000), wk =   0.0320000
        k(   54) = (  -0.3000000  -0.3000000   0.3000000), wk =   0.0320000
        k(   55) = (  -0.3000000   0.3000000  -0.3000000), wk =   0.0320000
        k(   56) = (   0.3000000  -0.3000000  -0.3000000), wk =   0.0320000
        k(   57) = (  -0.3000000   0.3000000   0.5000000), wk =   0.0320000
        k(   58) = (  -0.5000000  -0.3000000   0.3000000), wk =   0.0320000
        k(   59) = (   0.5000000  -0.3000000  -0.3000000), wk =   0.0320000
        k(   60) = (  -0.3000000  -0.5000000   0.3000000), wk =   0.0320000
        k(   61) = (  -0.3000000   0.5000000  -0.3000000), wk =   0.0320000
        k(   62) = (  -0.5000000   0.3000000   0.5000000), wk =   0.0320000
        k(   63) = (  -0.5000000   0.5000000   0.3000000), wk =   0.0320000

     Dense  grid:    25269 G-vectors     FFT dimensions: (  40,  40,  40)

     Estimated max dynamical RAM per process >      20.87 MB

     Estimated total dynamical RAM >     417.35 MB

     Initial potential from superposition of free atoms

     starting charge   95.92671, renormalised to   96.00000
     Starting wfcs are  128 randomized atomic wfcs
     Checking if some PAW data can be deallocated... 

     total cpu time spent up to now is        3.4 secs

     Self-consistent Calculation

     iteration #  1     ecut=    66.00 Ry     beta= 0.10
     Davidson diagonalization with overlap
     ethr =  1.00E-02,  avg # of iterations =  5.0

     total cpu time spent up to now is       11.2 secs

     total energy              =   -1133.15564550 Ry
     Harris-Foulkes estimate   =   -1134.40823103 Ry
     estimated scf accuracy    <       1.41240889 Ry

     iteration #  2     ecut=    66.00 Ry     beta= 0.10
     Davidson diagonalization with overlap
     ethr =  1.47E-03,  avg # of iterations =  4.2

     total cpu time spent up to now is       15.9 secs

     total energy              =   -1129.73344351 Ry
     Harris-Foulkes estimate   =   -1133.29397749 Ry
     estimated scf accuracy    <       1.22887139 Ry

     iteration #  3     ecut=    66.00 Ry     beta= 0.10
     Davidson diagonalization with overlap
     ethr =  1.28E-03,  avg # of iterations =  4.1

     total cpu time spent up to now is       22.6 secs

     total energy              =   -1130.35220527 Ry
     Harris-Foulkes estimate   =   -1130.88184860 Ry
     estimated scf accuracy    <       0.23982517 Ry

     iteration #  4     ecut=    66.00 Ry     beta= 0.10
     Davidson diagonalization with overlap
     ethr =  2.50E-04,  avg # of iterations =  2.1

     total cpu time spent up to now is       26.2 secs

     total energy              =   -1129.99723920 Ry
     Harris-Foulkes estimate   =   -1130.36472189 Ry
     estimated scf accuracy    <       0.15067998 Ry

     iteration #  5     ecut=    66.00 Ry     beta= 0.10
     Davidson diagonalization with overlap
     ethr =  1.57E-04,  avg # of iterations =  3.7

     total cpu time spent up to now is       32.5 secs

     total energy              =   -1130.06643056 Ry
     Harris-Foulkes estimate   =   -1130.05972278 Ry
     estimated scf accuracy    <       0.01751036 Ry

     iteration #  6     ecut=    66.00 Ry     beta= 0.10
     Davidson diagonalization with overlap
     ethr =  1.82E-05,  avg # of iterations =  4.7

     total cpu time spent up to now is       37.5 secs

     total energy              =   -1130.04245808 Ry
     Harris-Foulkes estimate   =   -1130.06885925 Ry
     estimated scf accuracy    <       0.01557568 Ry

     iteration #  7     ecut=    66.00 Ry     beta= 0.10
     Davidson diagonalization with overlap
     ethr =  1.62E-05,  avg # of iterations =  1.1

     total cpu time spent up to now is       40.5 secs

     total energy              =   -1130.02771633 Ry
     Harris-Foulkes estimate   =   -1130.04323769 Ry
     estimated scf accuracy    <       0.00552001 Ry

     iteration #  8     ecut=    66.00 Ry     beta= 0.10
     Davidson diagonalization with overlap
     ethr =  5.75E-06,  avg # of iterations =  7.2

     total cpu time spent up to now is       48.3 secs

     total energy              =   -1130.04628070 Ry
     Harris-Foulkes estimate   =   -1130.04658745 Ry
     estimated scf accuracy    <       0.00061934 Ry

     iteration #  9     ecut=    66.00 Ry     beta= 0.10
     Davidson diagonalization with overlap
     c_bands:  1 eigenvalues not converged
     ethr =  6.45E-07,  avg # of iterations =  6.9

     total cpu time spent up to now is       55.7 secs

     total energy              =   -1130.04664050 Ry
     Harris-Foulkes estimate   =   -1130.04664213 Ry
     estimated scf accuracy    <       0.00057713 Ry

     iteration # 10     ecut=    66.00 Ry     beta= 0.10
     Davidson diagonalization with overlap
     ethr =  6.01E-07,  avg # of iterations =  1.0

     total cpu time spent up to now is       58.7 secs

     total energy              =   -1130.04642266 Ry
     Harris-Foulkes estimate   =   -1130.04664534 Ry
     estimated scf accuracy    <       0.00058239 Ry

     iteration # 11     ecut=    66.00 Ry     beta= 0.10
     Davidson diagonalization with overlap
     ethr =  6.01E-07,  avg # of iterations =  1.0

     total cpu time spent up to now is       62.0 secs

     total energy              =   -1130.04635289 Ry
     Harris-Foulkes estimate   =   -1130.04642513 Ry
     estimated scf accuracy    <       0.00056665 Ry

     iteration # 12     ecut=    66.00 Ry     beta= 0.10
     Davidson diagonalization with overlap
     ethr =  5.90E-07,  avg # of iterations =  1.0

     total cpu time spent up to now is       65.0 secs

     total energy              =   -1130.04204408 Ry
     Harris-Foulkes estimate   =   -1130.04635430 Ry
     estimated scf accuracy    <       0.00062580 Ry

     iteration # 13     ecut=    66.00 Ry     beta= 0.10
     Davidson diagonalization with overlap
     c_bands:  1 eigenvalues not converged
     ethr =  5.90E-07,  avg # of iterations =  4.9

     total cpu time spent up to now is       71.8 secs

     total energy              =   -1130.04123236 Ry
     Harris-Foulkes estimate   =   -1130.04227461 Ry
     estimated scf accuracy    <       0.00161916 Ry

     iteration # 14     ecut=    66.00 Ry     beta= 0.10
     Davidson diagonalization with overlap
     ethr =  5.90E-07,  avg # of iterations =  1.3

     total cpu time spent up to now is       74.9 secs

     total energy              =   -1130.04150093 Ry
     Harris-Foulkes estimate   =   -1130.04126802 Ry
     estimated scf accuracy    <       0.00228133 Ry

     iteration # 15     ecut=    66.00 Ry     beta= 0.10
     Davidson diagonalization with overlap
     ethr =  5.90E-07,  avg # of iterations =  1.0

     total cpu time spent up to now is       77.8 secs

     total energy              =   -1130.04189878 Ry
     Harris-Foulkes estimate   =   -1130.04152333 Ry
     estimated scf accuracy    <       0.00413296 Ry

     iteration # 16     ecut=    66.00 Ry     beta= 0.10
     Davidson diagonalization with overlap
     ethr =  5.90E-07,  avg # of iterations =  3.6

     total cpu time spent up to now is       82.0 secs

     total energy              =   -1130.04264111 Ry
     Harris-Foulkes estimate   =   -1130.04195392 Ry
     estimated scf accuracy    <       0.00780041 Ry

     iteration # 17     ecut=    66.00 Ry     beta= 0.10
     Davidson diagonalization with overlap
     c_bands:  1 eigenvalues not converged
     ethr =  5.90E-07,  avg # of iterations =  5.5

     total cpu time spent up to now is       88.0 secs

     total energy              =   -1130.04254569 Ry
     Harris-Foulkes estimate   =   -1130.04274456 Ry
     estimated scf accuracy    <       0.01309081 Ry

     iteration # 18     ecut=    66.00 Ry     beta= 0.10
     Davidson diagonalization with overlap
     ethr =  5.90E-07,  avg # of iterations =  1.1

     total cpu time spent up to now is       91.2 secs

     total energy              =   -1130.04337203 Ry
     Harris-Foulkes estimate   =   -1130.04257979 Ry
     estimated scf accuracy    <       0.01133122 Ry

     iteration # 19     ecut=    66.00 Ry     beta= 0.10
     Davidson diagonalization with overlap
     ethr =  5.90E-07,  avg # of iterations =  1.0

     total cpu time spent up to now is       94.1 secs

     total energy              =   -1130.04285378 Ry
     Harris-Foulkes estimate   =   -1130.04341403 Ry
     estimated scf accuracy    <       0.01720770 Ry

     iteration # 20     ecut=    66.00 Ry     beta= 0.10
     Davidson diagonalization with overlap
     ethr =  5.90E-07,  avg # of iterations =  3.3

     total cpu time spent up to now is       98.3 secs

     total energy              =   -1130.04046357 Ry
     Harris-Foulkes estimate   =   -1130.04294260 Ry
     estimated scf accuracy    <       0.01624534 Ry

     iteration # 21     ecut=    66.00 Ry     beta= 0.10
     Davidson diagonalization with overlap
     ethr =  5.90E-07,  avg # of iterations =  4.7

     total cpu time spent up to now is      106.0 secs

     total energy              =   -1130.04079447 Ry
     Harris-Foulkes estimate   =   -1130.04100103 Ry
     estimated scf accuracy    <       0.00074197 Ry

     iteration # 22     ecut=    66.00 Ry     beta= 0.10
     Davidson diagonalization with overlap
     ethr =  5.90E-07,  avg # of iterations =  6.2

     total cpu time spent up to now is      113.6 secs

     total energy              =   -1130.04069011 Ry
     Harris-Foulkes estimate   =   -1130.04118349 Ry
     estimated scf accuracy    <       0.00216478 Ry

     iteration # 23     ecut=    66.00 Ry     beta= 0.10
     Davidson diagonalization with overlap
     ethr =  5.90E-07,  avg # of iterations =  3.7

     total cpu time spent up to now is      118.9 secs

     total energy              =   -1130.04079098 Ry
     Harris-Foulkes estimate   =   -1130.04083929 Ry
     estimated scf accuracy    <       0.00002657 Ry

     iteration # 24     ecut=    66.00 Ry     beta= 0.10
     Davidson diagonalization with overlap
     ethr =  2.77E-08,  avg # of iterations =  6.3

     total cpu time spent up to now is      130.4 secs

     total energy              =   -1130.04079708 Ry
     Harris-Foulkes estimate   =   -1130.04081005 Ry
     estimated scf accuracy    <       0.00008631 Ry

     iteration # 25     ecut=    66.00 Ry     beta= 0.10
     Davidson diagonalization with overlap
     ethr =  2.77E-08,  avg # of iterations =  1.7

     total cpu time spent up to now is      134.7 secs

     total energy              =   -1130.04080539 Ry
     Harris-Foulkes estimate   =   -1130.04079907 Ry
     estimated scf accuracy    <       0.00013799 Ry

     iteration # 26     ecut=    66.00 Ry     beta= 0.10
     Davidson diagonalization with overlap
     ethr =  2.77E-08,  avg # of iterations =  1.0

     total cpu time spent up to now is      137.6 secs

     total energy              =   -1130.04075164 Ry
     Harris-Foulkes estimate   =   -1130.04080584 Ry
     estimated scf accuracy    <       0.00011917 Ry

     iteration # 27     ecut=    66.00 Ry     beta= 0.10
     Davidson diagonalization with overlap
     ethr =  2.77E-08,  avg # of iterations =  3.9

     total cpu time spent up to now is      144.8 secs

     total energy              =   -1130.04069243 Ry
     Harris-Foulkes estimate   =   -1130.04076004 Ry
     estimated scf accuracy    <       0.00001289 Ry

     iteration # 28     ecut=    66.00 Ry     beta= 0.10
     Davidson diagonalization with overlap
     ethr =  1.34E-08,  avg # of iterations =  4.3

     total cpu time spent up to now is      151.5 secs

     total energy              =   -1130.04069080 Ry
     Harris-Foulkes estimate   =   -1130.04069818 Ry
     estimated scf accuracy    <       0.00001248 Ry

     iteration # 29     ecut=    66.00 Ry     beta= 0.10
     Davidson diagonalization with overlap
     ethr =  1.30E-08,  avg # of iterations =  1.0

     total cpu time spent up to now is      156.2 secs

     total energy              =   -1130.04068622 Ry
     Harris-Foulkes estimate   =   -1130.04069140 Ry
     estimated scf accuracy    <       0.00000235 Ry

     iteration # 30     ecut=    66.00 Ry     beta= 0.10
     Davidson diagonalization with overlap
     ethr =  2.44E-09,  avg # of iterations =  4.7

     total cpu time spent up to now is      163.4 secs

     total energy              =   -1130.04068336 Ry
     Harris-Foulkes estimate   =   -1130.04068771 Ry
     estimated scf accuracy    <       0.00000830 Ry

     iteration # 31     ecut=    66.00 Ry     beta= 0.10
     Davidson diagonalization with overlap
     ethr =  2.44E-09,  avg # of iterations =  2.1

     total cpu time spent up to now is      166.9 secs

     total energy              =   -1130.04068105 Ry
     Harris-Foulkes estimate   =   -1130.04068363 Ry
     estimated scf accuracy    <       0.00000425 Ry

     iteration # 32     ecut=    66.00 Ry     beta= 0.10
     Davidson diagonalization with overlap
     ethr =  2.44E-09,  avg # of iterations =  4.7

     total cpu time spent up to now is      176.1 secs

     total energy              =   -1130.04068196 Ry
     Harris-Foulkes estimate   =   -1130.04068267 Ry
     estimated scf accuracy    <       0.00000380 Ry

     iteration # 33     ecut=    66.00 Ry     beta= 0.10
     Davidson diagonalization with overlap
     ethr =  2.44E-09,  avg # of iterations =  1.0

     total cpu time spent up to now is      179.1 secs

     End of self-consistent calculation

          k = 0.1000 0.1000 0.1000 (  4785 PWs)   bands (ev):

    29.6288  35.1247  35.1360  35.1453  37.0417  37.0511  37.0587  39.6233
    39.6340  39.6426  40.8570  40.8594  40.8616  41.2603  41.2667  41.2688
    41.2742  41.2847  41.2855  42.6998  42.7073  42.7134  43.0647  44.2856
    44.2886  44.2943  44.2981  44.3036  44.3097  44.6165  44.6277  44.6383
    46.2171  46.2286  46.2399  47.7214  52.1393  52.1415  52.1441  52.7678
    52.7691  52.7710  52.7719  52.7738  52.7754  53.4236  53.4253  53.4274
    53.4298  53.4313  53.4332  53.7636  53.7649  53.7656  54.4515  54.4532
    54.4543  54.7103

          k = 0.1000 0.1000 0.3000 (  4773 PWs)   bands (ev):

    30.2924  33.2206  35.6649  35.6694  37.5646  37.5684  38.0397  38.0440
    38.7218  39.8165  39.8207  40.0120  40.6115  41.4489  41.4510  41.6561
    41.6633  41.7672  42.7431  42.7460  43.1164  43.4003  43.4102  43.5630
    43.5643  43.8763  43.8780  44.2341  44.2353  44.4888  44.4915  44.9380
    46.4882  47.9439  47.9550  49.4689  51.1129  52.1956  52.1980  52.3179
    52.3218  52.3631  52.3710  52.5260  52.5272  52.5776  52.5784  52.7703
    52.8519  52.8522  53.6355  53.6386  53.7483  53.7509  53.8352  53.9443
    53.9461  54.1359

          k = 0.1000 0.1000-0.5000 (  4804 PWs)   bands (ev):

    31.5343  31.5445  36.6632  36.6697  36.6757  36.6788  38.5233  38.5286
    38.5335  38.5369  39.9312  39.9432  40.7329  40.7403  42.3839  42.3922
    42.3942  42.3993  42.4610  42.4622  42.4644  42.4669  43.7772  43.7795
    43.7884  43.7914  43.8848  43.8891  44.4838  44.4856  44.4928  44.4947
    48.6359  48.6539  49.9897  50.0025  50.0128  50.0199  51.5075  51.5232
    52.2515  52.2582  52.2658  52.2732  52.3194  52.3215  52.3242  52.3262
    52.8330  52.8470  52.8544  52.8654  54.0166  54.0428  54.0754  54.0761
    54.0772  54.0779

          k = 0.1000 0.3000 0.3000 (  4792 PWs)   bands (ev):

    30.9350  33.7795  33.7929  36.1713  36.3270  38.0565  38.4443  38.4562
    39.2427  39.2487  40.2185  40.2294  40.3604  41.1829  41.1928  41.4334
    41.4472  42.0223  42.0751  43.1760  43.1820  43.3365  43.3452  43.9727
    43.9764  44.3079  44.3115  44.5352  44.5451  44.5485  45.0542  45.0697
    46.8524  46.8685  49.6493  50.2234  50.2288  51.1702  51.1741  51.2056
    51.2167  51.2516  52.0559  52.0866  52.0935  52.1202  52.6811  52.6823
    52.7400  52.7513  53.7599  53.7695  53.9901  53.9907  54.2514  54.3074
    54.3285  54.5329

          k = 0.1000 0.3000-0.5000 (  4754 PWs)   bands (ev):

    32.1408  32.1511  34.8533  34.8633  37.1248  37.1342  38.9736  38.9811
    39.2341  39.2432  40.2022  40.2080  40.4809  40.4930  40.9930  41.0003
    42.1932  42.1941  42.6603  42.6721  42.9863  42.9898  43.9864  43.9902
    44.2176  44.2281  44.4794  44.4854  44.7814  44.7884  45.0499  45.0503
    47.9005  47.9175  48.8920  48.9093  50.1998  50.2119  50.7088  50.7213
    51.5924  51.6083  51.7657  51.7779  52.0399  52.0471  52.7125  52.7169
    53.2493  53.2639  53.2735  53.2879  53.8492  53.8738  54.1251  54.1263
    54.3173  54.3246

          k = 0.1000-0.5000-0.5000 (  4740 PWs)   bands (ev):

    33.2829  33.2890  33.2984  33.3031  37.9978  38.0033  38.0115  38.0157
    39.8185  39.8231  39.8304  39.8339  41.4480  41.4565  41.4676  41.4691
    41.4713  41.4749  41.4802  41.4881  43.8136  43.8150  43.8180  43.8199
    44.8954  44.8982  44.9052  44.9064  44.9076  44.9104  44.9122  44.9164
    48.8000  48.8102  48.8137  48.8219  48.8261  48.8317  48.8355  48.8469
    51.7360  51.7402  51.7481  51.7537  53.3696  53.3737  53.3803  53.3870
    53.5651  53.5694  53.5805  53.5842  53.5931  53.5998  53.6077  53.6164
    54.1907  54.1920

          k = 0.3000 0.3000 0.3000 (  4788 PWs)   bands (ev):

    31.5554  34.3139  34.3258  34.3356  36.7600  36.7716  36.7809  38.8475
    39.7435  39.7489  39.7533  41.7425  41.7490  41.7552  41.8705  41.8749
    41.8781  41.8841  41.8908  41.8930  43.7902  43.7953  43.7983  43.8018
    43.8031  43.8091  43.8143  43.8229  43.8298  44.8389  44.8398  44.8408
    48.4398  48.4517  48.4636  49.7954  49.8020  49.8073  51.4778  51.4793
    51.4814  51.4850  51.4906  51.4966  52.3587  52.3641  52.3664  52.3705
    52.3829  52.3881  52.4221  52.4285  52.4373  53.1026  54.7217  54.7274
    54.7337  55.3084

          k = 0.3000 0.3000-0.5000 (  4758 PWs)   bands (ev):

    32.7229  32.7332  35.3427  35.3496  35.3562  35.3591  37.6241  37.6334
    40.6700  40.6733  40.6763  40.6799  41.0149  41.0270  42.6969  42.7043
    42.7068  42.7113  42.7207  42.7218  42.7251  42.7290  43.1418  43.1436
    43.1531  43.1563  44.4892  44.4915  44.4938  44.4984  44.9315  44.9396
    48.2778  48.2896  50.2919  50.3116  50.3131  50.3229  50.3380  50.3430
    50.3518  50.3625  51.5156  51.5303  51.5380  51.5504  51.9461  51.9534
    51.9550  51.9592  53.2591  53.2813  53.5639  53.5735  53.5769  53.5859
    55.2172  55.2285

          k = 0.3000-0.5000-0.5000 (  4772 PWs)   bands (ev):

    33.8231  33.8293  33.8387  33.8434  36.2898  36.2957  36.3047  36.3091
    41.5418  41.5452  41.5505  41.5531  41.9570  41.9654  41.9770  41.9784
    41.9804  41.9843  41.9896  41.9978  43.6144  43.6148  43.6158  43.6166
    43.9824  43.9896  44.0012  44.0021  44.0036  44.0084  44.0121  44.0203
    49.7307  49.7361  49.7440  49.7529  49.7602  49.7618  49.7684  49.7763
    51.0343  51.0381  51.0449  51.0490  51.8989  51.9021  51.9102  51.9154
    52.4058  52.4084  52.4135  52.4209  52.4328  52.4339  52.4427  52.4437
    56.0440  56.0470

          k =-0.5000-0.5000-0.5000 (  4776 PWs)   bands (ev):

    34.8441  34.8551  34.8568  34.8646  34.8688  34.8713  34.8826  34.8857
    42.8572  42.8605  42.8662  42.8725  42.8786  42.8805  42.8822  42.8828
    42.8844  42.8860  42.8882  42.8898  42.8940  42.8982  42.8994  42.9031
    42.9044  42.9084  42.9095  42.9157  42.9191  42.9209  42.9227  42.9287
    50.9917  51.0041  51.0087  51.0141  51.0167  51.0211  51.0262  51.0301
    51.0313  51.0340  51.0351  51.0376  51.0417  51.0433  51.0463  51.0532
    51.0549  51.0623  51.0625  51.0689  51.0730  51.0777  51.0842  51.0857
    58.6611  58.6655

          k =-0.1000-0.1000 0.1000 (  4785 PWs)   bands (ev):

    29.6288  35.1266  35.1361  35.1433  37.0433  37.0512  37.0571  39.6251
    39.6341  39.6407  40.8580  40.8593  40.8608  41.2544  41.2647  41.2700
    41.2713  41.2846  41.2954  42.7009  42.7073  42.7122  43.0646  44.2857
    44.2891  44.2947  44.2982  44.3032  44.3093  44.6209  44.6274  44.6341
    46.2216  46.2285  46.2355  47.7215  52.1401  52.1417  52.1430  52.7678
    52.7693  52.7699  52.7721  52.7747  52.7752  53.4228  53.4261  53.4284
    53.4292  53.4301  53.4331  53.7640  53.7653  53.7662  54.4520  54.4528
    54.4539  54.7037

          k =-0.1000 0.1000-0.1000 (  4785 PWs)   bands (ev):

    29.6288  35.1255  35.1353  35.1452  37.0423  37.0505  37.0586  39.6240
    39.6333  39.6425  40.8569  40.8593  40.8619  41.2522  41.2621  41.2731
    41.2778  41.2857  41.2896  42.7003  42.7068  42.7134  43.0645  44.2858
    44.2896  44.2940  44.2986  44.3032  44.3087  44.6158  44.6275  44.6392
    46.2162  46.2285  46.2408  47.7214  52.1390  52.1415  52.1443  52.7684
    52.7692  52.7705  52.7720  52.7736  52.7750  53.4248  53.4260  53.4279
    53.4290  53.4310  53.4318  53.7642  53.7648  53.7659  54.4514  54.4530
    54.4546  54.7014

          k = 0.1000-0.1000-0.1000 (  4785 PWs)   bands (ev):

    29.6288  35.1242  35.1378  35.1440  37.0412  37.0526  37.0576  39.6230
    39.6357  39.6414  40.8565  40.8593  40.8622  41.2531  41.2656  41.2716
    41.2759  41.2832  41.2909  42.6993  42.7084  42.7126  43.0647  44.2862
    44.2888  44.2933  44.2985  44.3035  44.3096  44.6146  44.6275  44.6406
    46.2149  46.2285  46.2422  47.7213  52.1387  52.1417  52.1445  52.7676
    52.7685  52.7705  52.7730  52.7741  52.7755  53.4242  53.4258  53.4268
    53.4289  53.4305  53.4327  53.7634  53.7656  53.7673  54.4512  54.4529
    54.4548  54.7008

          k =-0.1000-0.1000 0.3000 (  4773 PWs)   bands (ev):

    30.2924  33.2206  35.6649  35.6694  37.5647  37.5683  38.0397  38.0441
    38.7218  39.8169  39.8206  40.0116  40.6116  41.4489  41.4510  41.6553
    41.6640  41.7674  42.7433  42.7460  43.1162  43.4006  43.4102  43.5628
    43.5645  43.8762  43.8778  44.2341  44.2352  44.4888  44.4914  44.9381
    46.4882  47.9439  47.9550  49.4689  51.1128  52.1960  52.1975  52.3152
    52.3219  52.3633  52.3739  52.5260  52.5274  52.5773  52.5782  52.7706
    52.8514  52.8523  53.6357  53.6384  53.7497  53.7512  53.8340  53.9445
    53.9459  54.1353

          k =-0.1000 0.1000-0.3000 (  4773 PWs)   bands (ev):

    30.2924  33.2206  35.6631  35.6712  37.5633  37.5699  38.0378  38.0458
    38.7217  39.8153  39.8221  40.0118  40.6115  41.4478  41.4521  41.6524
    41.6679  41.7664  42.7423  42.7469  43.1164  43.3958  43.4151  43.5621
    43.5652  43.8754  43.8784  44.2336  44.2358  44.4877  44.4926  44.9381
    46.4882  47.9385  47.9604  49.4689  51.1129  52.1947  52.1989  52.3182
    52.3201  52.3564  52.3783  52.5259  52.5284  52.5772  52.5785  52.7695
    52.8518  52.8532  53.6348  53.6395  53.7492  53.7515  53.8332  53.9449
    53.9462  54.1349

          k = 0.1000-0.1000-0.3000 (  4773 PWs)   bands (ev):

    30.2924  33.2206  35.6632  35.6711  37.5629  37.5698  38.0380  38.0459
    38.7219  39.8155  39.8223  40.0114  40.6115  41.4478  41.4521  41.6509
    41.6683  41.7674  42.7426  42.7470  43.1156  43.3960  43.4149  43.5619
    43.5652  43.8759  43.8787  44.2337  44.2360  44.4876  44.4925  44.9379
    46.4883  47.9385  47.9604  49.4687  51.1129  52.1949  52.1988  52.3208
    52.3213  52.3541  52.3771  52.5257  52.5281  52.5773  52.5788  52.7707
    52.8514  52.8521  53.6349  53.6389  53.7487  53.7511  53.8352  53.9443
    53.9458  54.1355

          k = 0.3000-0.1000 0.1000 (  4773 PWs)   bands (ev):

    30.2924  33.2206  35.6627  35.6716  37.5629  37.5703  38.0375  38.0459
    38.7218  39.8152  39.8226  40.0114  40.6116  41.4490  41.4509  41.6571
    41.6638  41.7657  42.7420  42.7472  43.1165  43.4010  43.4095  43.5629
    43.5643  43.8755  43.8787  44.2335  44.2360  44.4874  44.4929  44.9381
    46.4882  47.9445  47.9543  49.4689  51.1128  52.1962  52.1977  52.3170
    52.3190  52.3644  52.3725  52.5268  52.5278  52.5771  52.5789  52.7701
    52.8510  52.8528  53.6349  53.6390  53.7498  53.7509  53.8338  53.9440
    53.9468  54.1348

          k =-0.3000-0.1000-0.1000 (  4773 PWs)   bands (ev):

    30.2924  33.2206  35.6608  35.6735  37.5613  37.5719  38.0354  38.0480
    38.7217  39.8134  39.8242  40.0119  40.6115  41.4481  41.4517  41.6537
    41.6674  41.7657  42.7408  42.7481  43.1168  43.3969  43.4133  43.5625
    43.5649  43.8747  43.8795  44.2329  44.2365  44.4862  44.4941  44.9381
    46.4882  47.9400  47.9589  49.4688  51.1129  52.1943  52.1985  52.3165
    52.3217  52.3593  52.3768  52.5259  52.5279  52.5764  52.5794  52.7709
    52.8513  52.8523  53.6334  53.6411  53.7485  53.7511  53.8350  53.9438
    53.9459  54.1342

          k = 0.3000 0.1000-0.1000 (  4773 PWs)   bands (ev):

    30.2924  33.2206  35.6627  35.6716  37.5630  37.5703  38.0374  38.0459
    38.7219  39.8152  39.8227  40.0114  40.6115  41.4490  41.4508  41.6570
    41.6638  41.7656  42.7420  42.7475  43.1164  43.4007  43.4096  43.5630
    43.5642  43.8757  43.8786  44.2334  44.2360  44.4874  44.4929  44.9382
    46.4881  47.9445  47.9543  49.4689  51.1129  52.1960  52.1978  52.3174
    52.3213  52.3632  52.3711  52.5263  52.5276  52.5773  52.5789  52.7710
    52.8507  52.8520  53.6346  53.6397  53.7491  53.7506  53.8352  53.9442
    53.9457  54.1349

          k =-0.3000 0.1000 0.1000 (  4773 PWs)   bands (ev):

    30.2924  33.2206  35.6608  35.6735  37.5612  37.5719  38.0354  38.0479
    38.7220  39.8132  39.8242  40.0119  40.6116  41.4480  41.4517  41.6532
    41.6674  41.7660  42.7410  42.7483  43.1166  43.3966  43.4133  43.5623
    43.5651  43.8748  43.8797  44.2329  44.2365  44.4862  44.4942  44.9381
    46.4882  47.9400  47.9589  49.4687  51.1127  52.1949  52.1979  52.3183
    52.3237  52.3573  52.3750  52.5258  52.5278  52.5764  52.5793  52.7711
    52.8514  52.8525  53.6334  53.6409  53.7494  53.7515  53.8338  53.9439
    53.9462  54.1344

          k =-0.1000 0.3000 0.1000 (  4773 PWs)   bands (ev):

    30.2924  33.2206  35.6604  35.6739  37.5606  37.5723  38.0353  38.0485
    38.7219  39.8130  39.8243  40.0119  40.6115  41.4498  41.4501  41.6581
    41.6612  41.7672  42.7408  42.7485  43.1160  43.4047  43.4057  43.5636
    43.5637  43.8747  43.8799  44.2329  44.2365  44.4859  44.4943  44.9380
    46.4883  47.9488  47.9502  49.4687  51.1128  52.1966  52.1969  52.3187
    52.3240  52.3647  52.3672  52.5259  52.5264  52.5770  52.5795  52.7709
    52.8506  52.8526  53.6330  53.6406  53.7484  53.7506  53.8359  53.9439
    53.9465  54.1348

          k =-0.1000-0.3000-0.1000 (  4773 PWs)   bands (ev):

    30.2924  33.2206  35.6593  35.6750  37.5597  37.5731  38.0343  38.0494
    38.7219  39.8122  39.8256  40.0114  40.6115  41.4490  41.4510  41.6566
    41.6627  41.7672  42.7401  42.7493  43.1160  43.4007  43.4101  43.5627
    43.5644  43.8744  43.8800  44.2324  44.2369  44.4852  44.4950  44.9379
    46.4883  47.9443  47.9546  49.4688  51.1130  52.1962  52.1979  52.3170
    52.3237  52.3594  52.3720  52.5267  52.5277  52.5762  52.5791  52.7709
    52.8518  52.8526  53.6322  53.6407  53.7500  53.7509  53.8340  53.9438
    53.9475  54.1340

          k = 0.1000 0.3000-0.1000 (  4773 PWs)   bands (ev):

    30.2924  33.2206  35.6603  35.6739  37.5609  37.5723  38.0351  38.0485
    38.7217  39.8133  39.8247  40.0112  40.6116  41.4498  41.4501  41.6594
    41.6608  41.7665  42.7408  42.7487  43.1161  43.4048  43.4059  43.5636
    43.5638  43.8744  43.8797  44.2327  44.2365  44.4860  44.4943  44.9381
    46.4882  47.9488  47.9502  49.4689  51.1128  52.1964  52.1970  52.3180
    52.3217  52.3657  52.3694  52.5263  52.5265  52.5767  52.5791  52.7710
    52.8510  52.8521  53.6329  53.6408  53.7491  53.7504  53.8347  53.9445
    53.9469  54.1343

          k = 0.1000-0.3000 0.1000 (  4773 PWs)   bands (ev):

    30.2924  33.2206  35.6593  35.6750  37.5600  37.5731  38.0341  38.0495
    38.7218  39.8120  39.8254  40.0118  40.6115  41.4490  41.4510  41.6559
    41.6639  41.7668  42.7401  42.7492  43.1164  43.4009  43.4099  43.5628
    43.5642  43.8741  43.8800  44.2325  44.2369  44.4852  44.4950  44.9380
    46.4883  47.9443  47.9546  49.4689  51.1130  52.1961  52.1981  52.3138
    52.3232  52.3610  52.3745  52.5263  52.5275  52.5767  52.5795  52.7706
    52.8508  52.8528  53.6324  53.6414  53.7500  53.7510  53.8339  53.9437
    53.9468  54.1339

          k =-0.1000 0.1000 0.5000 (  4804 PWs)   bands (ev):

    31.5343  31.5445  36.6616  36.6716  36.6731  36.6811  38.5219  38.5302
    38.5317  38.5386  39.9312  39.9432  40.7329  40.7403  42.3810  42.3864
    42.3976  42.4047  42.4596  42.4629  42.4645  42.4675  43.7780  43.7796
    43.7887  43.7906  43.8843  43.8892  44.4837  44.4857  44.4926  44.4949
    48.6359  48.6540  49.9867  50.0008  50.0109  50.0264  51.5076  51.5230
    52.2538  52.2567  52.2670  52.2705  52.3192  52.3221  52.3233  52.3272
    52.8393  52.8455  52.8556  52.8596  54.0164  54.0425  54.0749  54.0754
    54.0778  54.0789

          k =-0.5000-0.1000 0.1000 (  4804 PWs)   bands (ev):

    31.5337  31.5452  36.6621  36.6687  36.6727  36.6838  38.5223  38.5278
    38.5314  38.5407  39.9307  39.9439  40.7325  40.7408  42.3799  42.3946
    42.3970  42.3980  42.4607  42.4627  42.4631  42.4681  43.7778  43.7789
    43.7895  43.7913  43.8836  43.8891  44.4830  44.4856  44.4939  44.4948
    48.6349  48.6549  49.9837  50.0073  50.0124  50.0211  51.5068  51.5238
    52.2525  52.2560  52.2689  52.2715  52.3185  52.3219  52.3250  52.3259
    52.8386  52.8433  52.8551  52.8626  54.0155  54.0450  54.0747  54.0757
    54.0769  54.0780

          k = 0.5000-0.1000-0.1000 (  4804 PWs)   bands (ev):

    31.5337  31.5452  36.6611  36.6691  36.6721  36.6852  38.5214  38.5277
    38.5306  38.5424  39.9307  39.9439  40.7326  40.7409  42.3818  42.3877
    42.3960  42.4031  42.4603  42.4630  42.4648  42.4673  43.7762  43.7793
    43.7875  43.7940  43.8843  43.8890  44.4822  44.4863  44.4934  44.4953
    48.6349  48.6549  49.9872  50.0014  50.0102  50.0262  51.5067  51.5236
    52.2480  52.2581  52.2657  52.2766  52.3187  52.3218  52.3242  52.3271
    52.8273  52.8486  52.8537  52.8704  54.0156  54.0450  54.0749  54.0752
    54.0774  54.0777

          k =-0.1000-0.5000 0.1000 (  4804 PWs)   bands (ev):

    31.5379  31.5410  36.6605  36.6682  36.6782  36.6806  38.5203  38.5276
    38.5358  38.5385  39.9353  39.9391  40.7356  40.7378  42.3904  42.3914
    42.3932  42.3942  42.4629  42.4631  42.4642  42.4645  43.7785  43.7842
    43.7856  43.7887  43.8857  43.8877  44.4857  44.4876  44.4898  44.4939
    48.6421  48.6476  50.0022  50.0038  50.0089  50.0103  51.5129  51.5176
    52.2528  52.2609  52.2637  52.2705  52.3216  52.3224  52.3235  52.3241
    52.8343  52.8466  52.8517  52.8670  54.0257  54.0340  54.0760  54.0761
    54.0770  54.0775

          k =-0.1000 0.5000-0.1000 (  4804 PWs)   bands (ev):

    31.5379  31.5410  36.6614  36.6661  36.6788  36.6812  38.5218  38.5256
    38.5365  38.5384  39.9353  39.9391  40.7355  40.7377  42.3838  42.3929
    42.3939  42.3993  42.4618  42.4629  42.4634  42.4663  43.7802  43.7839
    43.7853  43.7876  43.8854  43.8877  44.4865  44.4884  44.4897  44.4924
    48.6422  48.6478  49.9932  50.0083  50.0090  50.0143  51.5130  51.5178
    52.2582  52.2612  52.2628  52.2663  52.3202  52.3232  52.3234  52.3240
    52.8425  52.8482  52.8528  52.8566  54.0257  54.0342  54.0751  54.0762
    54.0771  54.0779

          k =-0.1000-0.3000 0.3000 (  4792 PWs)   bands (ev):

    30.9350  33.7815  33.7908  36.1713  36.3270  38.0563  38.4460  38.4547
    39.2436  39.2478  40.2204  40.2264  40.3612  41.1854  41.1904  41.4369
    41.4439  42.0223  42.0751  43.1770  43.1813  43.3377  43.3438  43.9732
    43.9759  44.3083  44.3111  44.5346  44.5461  44.5480  45.0581  45.0660
    46.8563  46.8645  49.6499  50.2240  50.2275  51.1693  51.1714  51.2120
    51.2201  51.2457  52.0551  52.0874  52.0933  52.1202  52.6812  52.6822
    52.7427  52.7487  53.7611  53.7678  53.9899  53.9904  54.2513  54.3132
    54.3237  54.5335

          k =-0.1000 0.3000-0.3000 (  4792 PWs)   bands (ev):

    30.9350  33.7815  33.7908  36.1713  36.3270  38.0564  38.4459  38.4546
    39.2436  39.2478  40.2204  40.2269  40.3607  41.1854  41.1904  41.4368
    41.4439  42.0222  42.0752  43.1771  43.1813  43.3377  43.3438  43.9733
    43.9759  44.3083  44.3110  44.5338  44.5463  44.5485  45.0581  45.0660
    46.8563  46.8645  49.6498  50.2243  50.2276  51.1699  51.1711  51.2118
    51.2202  51.2451  52.0551  52.0876  52.0933  52.1201  52.6812  52.6821
    52.7428  52.7485  53.7615  53.7681  53.9901  53.9904  54.2513  54.3129
    54.3233  54.5336

          k = 0.1000-0.3000-0.3000 (  4792 PWs)   bands (ev):

    30.9350  33.7795  33.7929  36.1712  36.3271  38.0562  38.4444  38.4564
    39.2428  39.2487  40.2182  40.2288  40.3611  41.1829  41.1928  41.4335
    41.4472  42.0223  42.0750  43.1760  43.1820  43.3365  43.3453  43.9727
    43.9764  44.3079  44.3115  44.5352  44.5451  44.5485  45.0544  45.0697
    46.8524  46.8685  49.6497  50.2233  50.2285  51.1698  51.1741  51.2039
    51.2166  51.2541  52.0560  52.0863  52.0935  52.1199  52.6811  52.6823
    52.7402  52.7513  53.7600  53.7694  53.9899  53.9905  54.2513  54.3076
    54.3290  54.5330

          k = 0.3000 0.1000-0.3000 (  4792 PWs)   bands (ev):

    30.9350  33.7790  33.7933  36.1712  36.3270  38.0566  38.4437  38.4565
    39.2424  39.2489  40.2188  40.2296  40.3599  41.1875  41.1882  41.4395
    41.4410  42.0223  42.0754  43.1759  43.1823  43.3363  43.3454  43.9726
    43.9765  44.3077  44.3119  44.5341  44.5467  44.5478  45.0614  45.0625
    46.8599  46.8611  49.6494  50.2234  50.2286  51.1706  51.1724  51.2069
    51.2192  51.2492  52.0543  52.0874  52.0939  52.1207  52.6813  52.6822
    52.7452  52.7459  53.7595  53.7697  53.9902  53.9907  54.2514  54.3172
    54.3187  54.5328

          k =-0.3000-0.1000-0.3000 (  4792 PWs)   bands (ev):

    30.9350  33.7779  33.7944  36.1712  36.3271  38.0565  38.4425  38.4577
    39.2421  39.2493  40.2179  40.2298  40.3605  41.1852  41.1906  41.4365
    41.4440  42.0222  42.0754  43.1753  43.1829  43.3354  43.3460  43.9723
    43.9768  44.3074  44.3121  44.5349  44.5460  44.5478  45.0578  45.0662
    46.8561  46.8647  49.6499  50.2225  50.2290  51.1701  51.1712  51.2143
    51.2194  51.2434  52.0552  52.0859  52.0949  52.1207  52.6811  52.6820
    52.7429  52.7486  53.7588  53.7704  53.9896  53.9905  54.2513  54.3125
    54.3240  54.5327

          k = 0.3000-0.1000 0.3000 (  4792 PWs)   bands (ev):

    30.9350  33.7779  33.7944  36.1712  36.3271  38.0566  38.4425  38.4577
    39.2419  39.2494  40.2181  40.2301  40.3600  41.1852  41.1906  41.4368
    41.4437  42.0223  42.0754  43.1754  43.1829  43.3355  43.3460  43.9723
    43.9768  44.3075  44.3120  44.5348  44.5461  44.5479  45.0579  45.0661
    46.8560  46.8648  49.6499  50.2225  50.2291  51.1709  51.1718  51.2137
    51.2187  51.2434  52.0541  52.0866  52.0949  52.1209  52.6810  52.6818
    52.7429  52.7487  53.7587  53.7704  53.9901  53.9905  54.2513  54.3123
    54.3241  54.5324

          k =-0.3000 0.1000 0.3000 (  4792 PWs)   bands (ev):

    30.9350  33.7790  33.7933  36.1713  36.3270  38.0564  38.4438  38.4565
    39.2427  39.2489  40.2180  40.2296  40.3604  41.1875  41.1883  41.4399
    41.4408  42.0223  42.0752  43.1759  43.1823  43.3363  43.3454  43.9725
    43.9765  44.3076  44.3118  44.5348  44.5467  44.5471  45.0616  45.0626
    46.8598  46.8611  49.6498  50.2231  50.2285  51.1712  51.1722  51.2050
    51.2191  51.2507  52.0532  52.0879  52.0942  52.1209  52.6812  52.6823
    52.7453  52.7461  53.7595  53.7699  53.9900  53.9906  54.2513  54.3171
    54.3191  54.5330

          k = 0.3000-0.3000 0.1000 (  4792 PWs)   bands (ev):

    30.9350  33.7820  33.7904  36.1713  36.3270  38.0568  38.4463  38.4538
    39.2437  39.2476  40.2213  40.2276  40.3594  41.1822  41.1937  41.4322
    41.4483  42.0222  42.0754  43.1774  43.1810  43.3381  43.3434  43.9733
    43.9757  44.3087  44.3109  44.5340  44.5453  44.5493  45.0530  45.0710
    46.8512  46.8698  49.6495  50.2246  50.2274  51.1689  51.1731  51.2083
    51.2191  51.2488  52.0557  52.0886  52.0924  52.1198  52.6810  52.6822
    52.7394  52.7520  53.7618  53.7674  53.9901  53.9903  54.2513  54.3056
    54.3306  54.5335

          k =-0.3000-0.3000-0.1000 (  4792 PWs)   bands (ev):

    30.9350  33.7838  33.7885  36.1714  36.3269  38.0566  38.4481  38.4522
    39.2447  39.2467  40.2220  40.2261  40.3600  41.1850  41.1909  41.4362
    41.4444  42.0222  42.0753  43.1781  43.1802  43.3393  43.3423  43.9739
    43.9751  44.3090  44.3104  44.5348  44.5459  44.5480  45.0576  45.0666
    46.8557  46.8651  49.6498  50.2250  50.2268  51.1702  51.1717  51.2091
    51.2186  51.2485  52.0564  52.0885  52.0914  52.1199  52.6815  52.6817
    52.7425  52.7490  53.7630  53.7664  53.9896  53.9905  54.2514  54.3121
    54.3241  54.5343

          k = 0.3000 0.3000-0.1000 (  4792 PWs)   bands (ev):

    30.9350  33.7838  33.7885  36.1712  36.3271  38.0567  38.4480  38.4522
    39.2446  39.2468  40.2225  40.2260  40.3596  41.1850  41.1908  41.4364
    41.4442  42.0222  42.0753  43.1782  43.1802  43.3393  43.3423  43.9739
    43.9751  44.3090  44.3104  44.5341  44.5463  44.5484  45.0575  45.0664
    46.8558  46.8652  49.6497  50.2251  50.2267  51.1711  51.1725  51.2100
    51.2171  51.2478  52.0551  52.0885  52.0921  52.1202  52.6815  52.6817
    52.7424  52.7490  53.7631  53.7659  53.9900  53.9903  54.2515  54.3121
    54.3242  54.5341

          k =-0.3000 0.3000 0.1000 (  4792 PWs)   bands (ev):

    30.9350  33.7819  33.7904  36.1713  36.3270  38.0565  38.4465  38.4538
    39.2440  39.2476  40.2202  40.2276  40.3601  41.1822  41.1937  41.4326
    41.4482  42.0223  42.0751  43.1773  43.1810  43.3382  43.3435  43.9733
    43.9756  44.3085  44.3108  44.5346  44.5452  44.5489  45.0532  45.0710
    46.8512  46.8699  49.6497  50.2245  50.2272  51.1695  51.1732  51.2049
    51.2196  51.2510  52.0544  52.0882  52.0936  52.1200  52.6811  52.6822
    52.7395  52.7521  53.7618  53.7678  53.9900  53.9902  54.2515  54.3056
    54.3305  54.5338

          k =-0.1000 0.3000 0.5000 (  4754 PWs)   bands (ev):

    32.1408  32.1511  34.8533  34.8633  37.1249  37.1342  38.9735  38.9813
    39.2342  39.2429  40.2022  40.2082  40.4808  40.4929  40.9931  41.0002
    42.1932  42.1941  42.6603  42.6722  42.9863  42.9898  43.9864  43.9902
    44.2177  44.2280  44.4794  44.4854  44.7814  44.7884  45.0499  45.0503
    47.9005  47.9175  48.8921  48.9093  50.1997  50.2119  50.7089  50.7213
    51.5929  51.6078  51.7649  51.7781  52.0402  52.0472  52.7123  52.7170
    53.2488  53.2624  53.2743  53.2895  53.8491  53.8736  54.1250  54.1262
    54.3173  54.3247

          k = 0.3000 0.1000 0.5000 (  4754 PWs)   bands (ev):

    32.1408  32.1511  34.8533  34.8634  37.1248  37.1341  38.9737  38.9819
    39.2339  39.2421  40.2022  40.2082  40.4809  40.4929  40.9931  41.0005
    42.1932  42.1942  42.6603  42.6722  42.9863  42.9898  43.9863  43.9899
    44.2177  44.2279  44.4794  44.4854  44.7815  44.7884  45.0499  45.0503
    47.9005  47.9174  48.8920  48.9094  50.1999  50.2119  50.7088  50.7213
    51.5926  51.6076  51.7651  51.7785  52.0404  52.0474  52.7121  52.7169
    53.2446  53.2618  53.2787  53.2900  53.8492  53.8737  54.1250  54.1262
    54.3172  54.3248

          k = 0.3000-0.1000-0.5000 (  4754 PWs)   bands (ev):

    32.1408  32.1511  34.8533  34.8634  37.1248  37.1341  38.9738  38.9816
    39.2339  39.2426  40.2022  40.2081  40.4808  40.4929  40.9931  41.0006
    42.1932  42.1942  42.6602  42.6722  42.9863  42.9898  43.9864  43.9900
    44.2177  44.2279  44.4793  44.4854  44.7815  44.7884  45.0499  45.0504
    47.9004  47.9175  48.8920  48.9093  50.1998  50.2120  50.7089  50.7213
    51.5933  51.6079  51.7645  51.7782  52.0402  52.0473  52.7125  52.7170
    53.2434  53.2626  53.2766  53.2924  53.8490  53.8736  54.1251  54.1263
    54.3172  54.3247

          k =-0.5000-0.3000 0.1000 (  4754 PWs)   bands (ev):

    32.1402  32.1517  34.8527  34.8639  37.1243  37.1348  38.9733  38.9825
    39.2332  39.2428  40.2014  40.2083  40.4805  40.4938  40.9928  41.0008
    42.1932  42.1940  42.6598  42.6729  42.9862  42.9898  43.9859  43.9903
    44.2174  44.2286  44.4791  44.4856  44.7811  44.7886  45.0499  45.0503
    47.8996  47.9184  48.8910  48.9103  50.1990  50.2126  50.7082  50.7221
    51.5926  51.6088  51.7641  51.7786  52.0396  52.0475  52.7120  52.7171
    53.2496  53.2637  53.2725  53.2897  53.8480  53.8752  54.1249  54.1261
    54.3167  54.3249

          k = 0.5000-0.3000-0.1000 (  4754 PWs)   bands (ev):

    32.1402  32.1517  34.8527  34.8639  37.1243  37.1348  38.9726  38.9823
    39.2339  39.2428  40.2017  40.2086  40.4805  40.4937  40.9927  41.0006
    42.1932  42.1940  42.6599  42.6729  42.9862  42.9898  43.9858  43.9902
    44.2174  44.2287  44.4791  44.4857  44.7811  44.7887  45.0499  45.0503
    47.8996  47.9184  48.8911  48.9103  50.1990  50.2126  50.7080  50.7220
    51.5925  51.6083  51.7642  51.7792  52.0395  52.0478  52.7121  52.7175
    53.2451  53.2633  53.2750  53.2912  53.8479  53.8751  54.1248  54.1261
    54.3168  54.3248

          k =-0.1000-0.5000 0.3000 (  4754 PWs)   bands (ev):

    32.1444  32.1475  34.8568  34.8598  37.1281  37.1309  38.9758  38.9789
    39.2375  39.2397  40.2041  40.2060  40.4852  40.4890  40.9956  40.9976
    42.1934  42.1938  42.6644  42.6682  42.9875  42.9886  43.9875  43.9886
    44.2214  44.2247  44.4814  44.4833  44.7837  44.7861  45.0501  45.0501
    47.9063  47.9115  48.8981  48.9035  50.2040  50.2076  50.7132  50.7170
    51.5983  51.6030  51.7694  51.7732  52.0426  52.0448  52.7139  52.7154
    53.2518  53.2607  53.2738  53.2878  53.8578  53.8657  54.1254  54.1259
    54.3199  54.3220

          k =-0.1000 0.5000-0.3000 (  4754 PWs)   bands (ev):

    32.1444  32.1475  34.8568  34.8598  37.1280  37.1309  38.9766  38.9790
    39.2369  39.2395  40.2042  40.2059  40.4851  40.4889  40.9956  40.9978
    42.1934  42.1938  42.6644  42.6682  42.9875  42.9886  43.9875  43.9887
    44.2214  44.2246  44.4814  44.4834  44.7837  44.7860  45.0500  45.0501
    47.9064  47.9116  48.8980  48.9034  50.2039  50.2076  50.7132  50.7169
    51.5975  51.6030  51.7701  51.7731  52.0427  52.0448  52.7138  52.7154
    53.2536  53.2619  53.2728  53.2870  53.8578  53.8655  54.1254  54.1258
    54.3198  54.3220

          k = 0.3000-0.5000 0.1000 (  4754 PWs)   bands (ev):

    32.1444  32.1475  34.8568  34.8598  37.1281  37.1309  38.9764  38.9791
    39.2370  39.2394  40.2041  40.2061  40.4850  40.4887  40.9957  40.9978
    42.1936  42.1939  42.6644  42.6682  42.9874  42.9886  43.9876  43.9888
    44.2211  44.2245  44.4814  44.4833  44.7839  44.7861  45.0500  45.0501
    47.9065  47.9116  48.8980  48.9033  50.2041  50.2076  50.7132  50.7170
    51.5981  51.6031  51.7694  51.7734  52.0425  52.0446  52.7139  52.7154
    53.2518  53.2611  53.2757  53.2865  53.8577  53.8655  54.1254  54.1258
    54.3198  54.3219

          k = 0.3000 0.5000-0.1000 (  4754 PWs)   bands (ev):

    32.1444  32.1475  34.8568  34.8599  37.1282  37.1309  38.9766  38.9789
    39.2366  39.2395  40.2046  40.2061  40.4850  40.4888  40.9955  40.9977
    42.1936  42.1939  42.6644  42.6682  42.9874  42.9885  43.9876  43.9887
    44.2211  44.2245  44.4813  44.4835  44.7837  44.7861  45.0500  45.0501
    47.9063  47.9115  48.8983  48.9034  50.2039  50.2077  50.7132  50.7169
    51.5977  51.6033  51.7699  51.7731  52.0426  52.0448  52.7138  52.7154
    53.2488  53.2572  53.2792  53.2893  53.8577  53.8656  54.1255  54.1259
    54.3199  54.3221

          k =-0.5000 0.1000 0.3000 (  4754 PWs)   bands (ev):

    32.1402  32.1517  34.8527  34.8640  37.1242  37.1347  38.9725  38.9818
    39.2338  39.2436  40.2019  40.2085  40.4804  40.4936  40.9925  41.0007
    42.1932  42.1940  42.6599  42.6729  42.9861  42.9898  43.9860  43.9902
    44.2172  44.2287  44.4791  44.4857  44.7811  44.7887  45.0498  45.0503
    47.8995  47.9184  48.8911  48.9102  50.1992  50.2126  50.7081  50.7220
    51.5922  51.6085  51.7640  51.7788  52.0397  52.0483  52.7121  52.7173
    53.2423  53.2605  53.2759  53.2959  53.8479  53.8750  54.1250  54.1260
    54.3168  54.3250

          k = 0.5000-0.1000 0.3000 (  4754 PWs)   bands (ev):

    32.1402  32.1517  34.8527  34.8640  37.1242  37.1347  38.9729  38.9824
    39.2337  39.2429  40.2015  40.2084  40.4804  40.4937  40.9927  41.0008
    42.1932  42.1940  42.6598  42.6729  42.9861  42.9898  43.9861  43.9902
    44.2172  44.2286  44.4791  44.4856  44.7811  44.7887  45.0498  45.0504
    47.8995  47.9184  48.8911  48.9102  50.1991  50.2126  50.7083  50.7220
    51.5924  51.6087  51.7640  51.7787  52.0396  52.0477  52.7121  52.7171
    53.2447  53.2629  53.2753  53.2924  53.8479  53.8752  54.1251  54.1263
    54.3167  54.3251

          k =-0.5000 0.1000 0.5000 (  4740 PWs)   bands (ev):

    33.2792  33.2882  33.2975  33.3087  37.9945  38.0024  38.0107  38.0205
    39.8156  39.8225  39.8295  39.8383  41.4526  41.4606  41.4614  41.4672
    41.4697  41.4770  41.4798  41.4878  43.8117  43.8161  43.8173  43.8213
    44.8971  44.8999  44.9022  44.9047  44.9071  44.9111  44.9138  44.9159
    48.7922  48.8076  48.8178  48.8209  48.8228  48.8364  48.8431  48.8451
    51.7309  51.7424  51.7476  51.7573  53.3626  53.3747  53.3811  53.3904
    53.5685  53.5719  53.5805  53.5831  53.5922  53.5974  53.6058  53.6185
    54.1895  54.1928

          k =-0.5000 0.5000 0.1000 (  4740 PWs)   bands (ev):

    33.2862  33.2873  33.2973  33.3026  38.0007  38.0017  38.0107  38.0154
    39.8210  39.8218  39.8294  39.8334  41.4518  41.4540  41.4607  41.4689
    41.4713  41.4811  41.4828  41.4857  43.8134  43.8151  43.8185  43.8193
    44.8968  44.8978  44.9030  44.9068  44.9072  44.9119  44.9124  44.9159
    48.8053  48.8099  48.8167  48.8199  48.8224  48.8291  48.8386  48.8442
    51.7360  51.7405  51.7498  51.7518  53.3680  53.3737  53.3827  53.3856
    53.5627  53.5732  53.5826  53.5831  53.5911  53.6023  53.6039  53.6177
    54.1909  54.1919

          k =-0.3000-0.3000 0.3000 (  4788 PWs)   bands (ev):

    31.5554  34.3159  34.3259  34.3335  36.7620  36.7716  36.7789  38.8475
    39.7443  39.7490  39.7524  41.7452  41.7488  41.7529  41.8649  41.8743
    41.8782  41.8793  41.8930  41.9015  43.7917  43.7983  43.8002  43.8028
    43.8053  43.8101  43.8129  43.8192  43.8244  44.8391  44.8398  44.8406
    48.4445  48.4517  48.4591  49.7965  49.8019  49.8061  51.4774  51.4805
    51.4830  51.4879  51.4889  51.4933  52.3558  52.3616  52.3701  52.3762
    52.3793  52.3882  52.4244  52.4290  52.4338  53.1026  54.7230  54.7273
    54.7327  55.3098

          k =-0.3000 0.3000-0.3000 (  4788 PWs)   bands (ev):

    31.5554  34.3147  34.3251  34.3354  36.7609  36.7709  36.7808  38.8477
    39.7437  39.7486  39.7532  41.7422  41.7488  41.7559  41.8626  41.8722
    41.8811  41.8853  41.8920  41.8978  43.7940  43.7960  43.7993  43.8015
    43.8034  43.8059  43.8139  43.8220  43.8291  44.8389  44.8398  44.8407
    48.4389  48.4516  48.4645  49.7958  49.8016  49.8073  51.4750  51.4814
    51.4838  51.4879  51.4905  51.4920  52.3532  52.3645  52.3686  52.3760
    52.3800  52.3896  52.4225  52.4291  52.4355  53.1026  54.7221  54.7275
    54.7330  55.3078

          k = 0.3000-0.3000-0.3000 (  4788 PWs)   bands (ev):

    31.5554  34.3134  34.3277  34.3342  36.7595  36.7734  36.7796  38.8475
    39.7433  39.7497  39.7527  41.7411  41.7487  41.7568  41.8643  41.8730
    41.8803  41.8850  41.8908  41.8980  43.7891  43.7947  43.7983  43.8020
    43.8046  43.8091  43.8134  43.8224  43.8309  44.8391  44.8396  44.8410
    48.4376  48.4517  48.4661  49.7952  49.8028  49.8064  51.4748  51.4794
    51.4818  51.4878  51.4916  51.4960  52.3542  52.3612  52.3693  52.3709
    52.3822  52.3895  52.4222  52.4284  52.4396  53.1036  54.7223  54.7264
    54.7334  55.3078

          k =-0.3000 0.3000 0.5000 (  4758 PWs)   bands (ev):

    32.7229  32.7332  35.3412  35.3515  35.3533  35.3616  37.6241  37.6334
    40.6692  40.6742  40.6760  40.6801  41.0148  41.0270  42.6940  42.6982
    42.7094  42.7159  42.7186  42.7202  42.7286  42.7308  43.1420  43.1439
    43.1535  43.1557  44.4887  44.4927  44.4932  44.4981  44.9316  44.9396
    48.2777  48.2896  50.2944  50.3093  50.3156  50.3256  50.3355  50.3441
    50.3469  50.3634  51.5228  51.5284  51.5397  51.5434  51.9443  51.9512
    51.9555  51.9628  53.2590  53.2813  53.5675  53.5728  53.5777  53.5820
    55.2170  55.2285

          k =-0.5000-0.3000 0.3000 (  4758 PWs)   bands (ev):

    32.7223  32.7338  35.3417  35.3486  35.3529  35.3644  37.6235  37.6341
    40.6694  40.6726  40.6758  40.6811  41.0146  41.0279  42.6922  42.7059
    42.7079  42.7110  42.7184  42.7220  42.7260  42.7318  43.1417  43.1433
    43.1538  43.1569  44.4872  44.4923  44.4950  44.4982  44.9312  44.9400
    48.2771  48.2902  50.2927  50.3116  50.3180  50.3236  50.3351  50.3408
    50.3519  50.3610  51.5214  51.5266  51.5396  51.5466  51.9437  51.9552
    51.9567  51.9582  53.2580  53.2824  53.5666  53.5704  53.5793  53.5843
    55.2164  55.2289

          k = 0.5000-0.3000-0.3000 (  4758 PWs)   bands (ev):

    32.7223  32.7338  35.3406  35.3493  35.3522  35.3656  37.6235  37.6340
    40.6684  40.6722  40.6748  40.6838  41.0145  41.0278  42.6947  42.6994
    42.7083  42.7117  42.7200  42.7216  42.7291  42.7302  43.1407  43.1434
    43.1520  43.1593  44.4889  44.4912  44.4940  44.4986  44.9311  44.9400
    48.2771  48.2903  50.2954  50.3079  50.3172  50.3254  50.3326  50.3432
    50.3491  50.3640  51.5097  51.5320  51.5371  51.5553  51.9447  51.9524
    51.9543  51.9627  53.2579  53.2825  53.5623  53.5738  53.5770  53.5862
    55.2171  55.2289

          k =-0.3000-0.5000 0.3000 (  4758 PWs)   bands (ev):

    32.7265  32.7296  35.3403  35.3480  35.3585  35.3608  37.6273  37.6302
    40.6672  40.6734  40.6777  40.6810  41.0191  41.0230  42.7026  42.7035
    42.7058  42.7064  42.7231  42.7233  42.7249  42.7255  43.1427  43.1492
    43.1510  43.1525  44.4887  44.4912  44.4952  44.4976  44.9343  44.9369
    48.2818  48.2854  50.3070  50.3124  50.3144  50.3181  50.3358  50.3414
    50.3504  50.3554  51.5172  51.5301  51.5357  51.5510  51.9518  51.9524
    51.9544  51.9551  53.2667  53.2739  53.5676  53.5714  53.5779  53.5829
    55.2209  55.2242

          k =-0.3000 0.5000-0.3000 (  4758 PWs)   bands (ev):

    32.7265  32.7296  35.3410  35.3460  35.3591  35.3615  37.6274  37.6302
    40.6693  40.6718  40.6783  40.6797  41.0191  41.0229  42.6960  42.7050
    42.7062  42.7114  42.7185  42.7233  42.7248  42.7303  43.1446  43.1481
    43.1496  43.1529  44.4888  44.4903  44.4955  44.4981  44.9343  44.9369
    48.2819  48.2854  50.3012  50.3106  50.3144  50.3182  50.3417  50.3456
    50.3489  50.3537  51.5264  51.5323  51.5360  51.5398  51.9474  51.9541
    51.9549  51.9573  53.2668  53.2740  53.5712  53.5751  53.5760  53.5781
    55.2212  55.2243

          k =-0.5000 0.3000 0.5000 (  4772 PWs)   bands (ev):

    33.8194  33.8285  33.8377  33.8489  36.2862  36.2949  36.3037  36.3144
    41.5396  41.5444  41.5499  41.5562  41.9617  41.9700  41.9705  41.9764
    41.9791  41.9864  41.9894  41.9973  43.6137  43.6152  43.6154  43.6168
    43.9866  43.9939  43.9954  44.0003  44.0028  44.0094  44.0127  44.0190
    49.7243  49.7390  49.7487  49.7522  49.7535  49.7639  49.7739  49.7749
    51.0304  51.0409  51.0428  51.0527  51.8925  51.9051  51.9086  51.9195
    52.4029  52.4121  52.4166  52.4219  52.4269  52.4329  52.4415  52.4471
    56.0406  56.0478

          k =-0.5000 0.5000 0.3000 (  4772 PWs)   bands (ev):

    33.8265  33.8275  33.8376  33.8428  36.2930  36.2941  36.3036  36.3086
    41.5435  41.5440  41.5497  41.5527  41.9609  41.9630  41.9698  41.9782
    41.9808  41.9908  41.9921  41.9956  43.6142  43.6148  43.6158  43.6161
    43.9864  43.9870  43.9943  44.0021  44.0043  44.0134  44.0143  44.0183
    49.7315  49.7391  49.7465  49.7518  49.7539  49.7609  49.7690  49.7777
    51.0342  51.0378  51.0459  51.0488  51.8971  51.9020  51.9121  51.9148
    52.4020  52.4131  52.4162  52.4215  52.4265  52.4324  52.4401  52.4502
    56.0445  56.0477

     the Fermi energy is    52.7842 ev

!    total energy              =   -1130.04068117 Ry
     Harris-Foulkes estimate   =   -1130.04068208 Ry
     estimated scf accuracy    <       0.00000099 Ry

     total all-electron energy =    -15406.609703 Ry

     The total energy is the sum of the following terms:

     one-electron contribution =     469.19281634 Ry
     hartree contribution      =       1.75212100 Ry
     xc contribution           =    -138.29208845 Ry
     ewald contribution        =    -326.84024986 Ry
     one-center paw contrib.   =   -1135.84018129 Ry
     smearing contrib. (-TS)   =      -0.01309890 Ry

     convergence has been achieved in  33 iterations

     Forces acting on atoms (cartesian axes, Ry/au):

     atom    1 type  1   force =    -0.00332842   -0.00409668    0.00091175
     atom    2 type  1   force =    -0.00498623   -0.00179595    0.01285904
     atom    3 type  1   force =     0.01298759    0.00119276   -0.02077060
     atom    4 type  1   force =    -0.00689431    0.00300088   -0.02404806
     atom    5 type  1   force =    -0.01499541   -0.01288199    0.01653446
     atom    6 type  1   force =    -0.01091521    0.01108181   -0.00645449
     atom    7 type  1   force =    -0.01522786   -0.03188567    0.01282095
     atom    8 type  1   force =    -0.00610403    0.00968842   -0.00424809
     atom    9 type  1   force =     0.01979019    0.00531346   -0.00132988
     atom   10 type  1   force =    -0.00640518    0.00980714   -0.02738001
     atom   11 type  1   force =    -0.00997273   -0.01890268   -0.01273025
     atom   12 type  1   force =    -0.01578994   -0.00557424   -0.01019248
     atom   13 type  1   force =    -0.00462008   -0.01734557    0.00624354
     atom   14 type  1   force =    -0.01025763    0.02027450    0.01925716
     atom   15 type  1   force =    -0.01794945    0.01488908    0.01782302
     atom   16 type  1   force =     0.02442420    0.01172098    0.01466781
     atom   17 type  1   force =    -0.01757361   -0.00460659   -0.00121487
     atom   18 type  1   force =     0.01047762   -0.00346356    0.01472430
     atom   19 type  1   force =     0.02024009    0.01301867   -0.00414890
     atom   20 type  1   force =     0.00653936    0.02103129   -0.00967962
     atom   21 type  1   force =     0.00498706   -0.02231454    0.00982384
     atom   22 type  1   force =    -0.00207232    0.02353265    0.01250371
     atom   23 type  1   force =     0.01320012   -0.00925620   -0.01216229
     atom   24 type  1   force =     0.01438777    0.00477086    0.00418407
     atom   25 type  1   force =    -0.01169705   -0.00045156    0.00573900
     atom   26 type  1   force =     0.01156450   -0.00863910    0.00373994
     atom   27 type  1   force =    -0.00851816   -0.00780054    0.00326080
     atom   28 type  1   force =     0.00505782    0.00058780    0.00541345
     atom   29 type  1   force =     0.03876005   -0.01854313    0.00220663
     atom   30 type  1   force =    -0.00429539    0.00761913   -0.00098719
     atom   31 type  1   force =    -0.01057662   -0.00556561   -0.01701666
     atom   32 type  1   force =    -0.00023676    0.01559417   -0.01035009

     Total force =     0.128359     Total SCF correction =     0.001877


     Computing stress (Cartesian axis) and pressure

          total   stress  (Ry/bohr**3)                   (kbar)     P=59628.84
   0.40534762   0.00000004   0.00000086      59628.68      0.01      0.13
   0.00000004   0.40534924  -0.00000135          0.01  59628.92     -0.20
   0.00000086  -0.00000135   0.40534927          0.13     -0.20  59628.93


     Writing output data file fe_scf_fcc_2.save/
 
     init_run     :      2.63s CPU      2.79s WALL (       1 calls)
     electrons    :    168.49s CPU    175.74s WALL (       1 calls)
     forces       :      0.70s CPU      0.79s WALL (       1 calls)
     stress       :      0.96s CPU      0.98s WALL (       1 calls)

     Called by init_run:
     wfcinit      :      2.49s CPU      2.64s WALL (       1 calls)
     potinit      :      0.07s CPU      0.07s WALL (       1 calls)
     hinit0       :      0.06s CPU      0.07s WALL (       1 calls)

     Called by electrons:
     c_bands      :    152.14s CPU    158.14s WALL (      33 calls)
     sum_band     :     14.05s CPU     15.23s WALL (      33 calls)
     v_of_rho     :      0.08s CPU      0.10s WALL (      34 calls)
     newd         :      0.06s CPU      0.06s WALL (      34 calls)
     PAW_pot      :      2.16s CPU      2.18s WALL (      34 calls)
     mix_rho      :      0.05s CPU      0.06s WALL (      33 calls)

     Called by c_bands:
     init_us_2    :      1.41s CPU      1.45s WALL (    4347 calls)
     cegterg      :    146.87s CPU    152.77s WALL (    2079 calls)

     Called by sum_band:
     sum_band:bec :      0.23s CPU      0.24s WALL (    2079 calls)
     addusdens    :      0.04s CPU      0.04s WALL (      33 calls)

     Called by *egterg:
     h_psi        :     65.95s CPU     70.45s WALL (    9006 calls)
     s_psi        :      5.48s CPU      5.55s WALL (    9006 calls)
     g_psi        :      0.35s CPU      0.36s WALL (    6864 calls)
     cdiaghg      :     59.95s CPU     60.38s WALL (    8943 calls)

     Called by h_psi:
     h_psi:pot    :     65.64s CPU     70.13s WALL (    9006 calls)
     h_psi:calbec :      8.68s CPU     10.10s WALL (    9006 calls)
     vloc_psi     :     51.07s CPU     54.05s WALL (    9006 calls)
     add_vuspsi   :      5.84s CPU      5.93s WALL (    9006 calls)

     General routines
     calbec       :     12.01s CPU     14.13s WALL (   11400 calls)
     fft          :      0.13s CPU      0.15s WALL (     400 calls)
     ffts         :      0.01s CPU      0.01s WALL (      33 calls)
     fftw         :     57.54s CPU     60.88s WALL (  752228 calls)
 
     Parallel routines
     fft_scatt_xy :      3.98s CPU      4.21s WALL (  752661 calls)
     fft_scatt_yz :     37.19s CPU     39.51s WALL (  752661 calls)
 
     PWSCF        :  2m53.95s CPU     3m 1.90s WALL

 
   This run was terminated on:   0: 4:27  23Oct2019            

=------------------------------------------------------------------------------=
   JOB DONE.
=------------------------------------------------------------------------------=
