
     Program PWSCF v.6.3 starts on 22Oct2019 at 19:11:26 

     This program is part of the open-source Quantum ESPRESSO suite
     for quantum simulation of materials; please cite
         "P. Giannozzi et al., J. Phys.:Condens. Matter 21 395502 (2009);
         "P. Giannozzi et al., J. Phys.:Condens. Matter 29 465901 (2017);
          URL http://www.quantum-espresso.org", 
     in publications or presentations arising from this work. More details at
     http://www.quantum-espresso.org/quote

     Parallel version (MPI & OpenMP), running on      20 processor cores
     Number of MPI processes:                20
     Threads/MPI process:                     1

     MPI processes distributed on     1 nodes
     R & G space division:  proc/nbgrp/npool/nimage =      20
     Reading input from /rds/homes/b/bxp912/jobs/20191022_test/wd/runpwscf/file_10232.in
Warning: card &IONS ignored
Warning: card ION_DYNAMICS = 'BFGS', ignored
Warning: card / ignored
Warning: card &CELL ignored
Warning: card CELL_DYNAMICS = 'BFGS', ignored
Warning: card CELL_FACTOR = 2.0, ignored
Warning: card PRESS = 0.0, ignored
Warning: card / ignored

     Current dimensions of program PWSCF are:
     Max number of different atomic species (ntypx) = 10
     Max number of k-points (npk) =  40000
     Max angular momentum in pseudopotentials (lmaxx) =  3
     Message from routine read_upf::
     Pseudo file /rds/homes/b/bxp912/pp/Al.pbe-nl-kjpaw_psl.1.0.0.UPF has been successfully fixed on the fly.
To avoid this message in the future you can permanently fix 
 your pseudo files following instructions given in: 
https://gitlab.com/QEF/q-e/blob/master/upftools/how_to_fix_upf.md
               file Al.pbe-nl-kjpaw_psl.1.0.0.UPF: wavefunction(s)  3S 3P renormalized

     Subspace diagonalization in iterative solution of the eigenvalue problem:
     a serial algorithm will be used

 
     Parallelization info
     --------------------
     sticks:   dense  smooth     PW     G-vecs:    dense   smooth      PW
     Min          52      52     20                 1262     1262     300
     Max          53      53     21                 1265     1265     303
     Sum        1041    1041    401                25269    25269    6031
 


     bravais-lattice index     =            0
     lattice parameter (alat)  =       8.0800  a.u.
     unit-cell volume          =     527.5141 (a.u.)^3
     number of atoms/cell      =           32
     number of atomic types    =            1
     number of electrons       =        96.00
     number of Kohn-Sham states=           58
     kinetic-energy cutoff     =      66.0000  Ry
     charge density cutoff     =     200.0000  Ry
     convergence threshold     =      1.0E-06
     mixing beta               =       0.1000
     number of iterations used =           10  TF        mixing
     Exchange-correlation      = SLA PW PBX PBC ( 1  4  3  4 0 0)

     celldm(1)=   8.080000  celldm(2)=   0.000000  celldm(3)=   0.000000
     celldm(4)=   0.000000  celldm(5)=   0.000000  celldm(6)=   0.000000

     crystal axes: (cart. coord. in units of alat)
               a(1) = (   1.000000   0.000000   0.000000 )  
               a(2) = (   0.000000   1.000000   0.000000 )  
               a(3) = (   0.000000   0.000000   1.000000 )  

     reciprocal axes: (cart. coord. in units 2 pi/alat)
               b(1) = (  1.000000  0.000000  0.000000 )  
               b(2) = (  0.000000  1.000000  0.000000 )  
               b(3) = (  0.000000  0.000000  1.000000 )  


     PseudoPot. # 1 for Al read from file:
     /rds/homes/b/bxp912/pp/Al.pbe-nl-kjpaw_psl.1.0.0.UPF
     MD5 check sum: 339dbea23cf3ab9a065ad45c0f9085d7
     Pseudo is Projector augmented-wave + core cor, Zval =  3.0
     Generated using "atomic" code by A. Dal Corso v.5.1
     Shape of augmentation charge: PSQ
     Using radial grid of 1135 points,  4 beta functions with: 
                l(1) =   0
                l(2) =   0
                l(3) =   1
                l(4) =   1
     Q(r) pseudized with 0 coefficients 


     atomic species   valence    mass     pseudopotential
        Al             3.00    26.98200     Al( 1.00)

     No symmetry found



   Cartesian axes

     site n.     atom                  positions (alat units)
         1           Al  tau(   1) = (  -0.0000618   0.0000180   0.0001286  )
         2           Al  tau(   2) = (   0.2501504   0.2496409   0.0001329  )
         3           Al  tau(   3) = (   0.2498245   0.0000576   0.2505585  )
         4           Al  tau(   4) = (  -0.0000378   0.2504134   0.2503472  )
         5           Al  tau(   5) = (   0.0004835   0.0004765   0.4997751  )
         6           Al  tau(   6) = (   0.2502257   0.2496836   0.5000068  )
         7           Al  tau(   7) = (   0.2500525   0.0002908   0.7497884  )
         8           Al  tau(   8) = (   0.0001038   0.2502148   0.7503971  )
         9           Al  tau(   9) = (   0.0004488   0.5002037  -0.0000292  )
        10           Al  tau(  10) = (   0.2502638   0.7503330   0.0007661  )
        11           Al  tau(  11) = (   0.2503574   0.5002057   0.2504745  )
        12           Al  tau(  12) = (   0.0000725   0.7500861   0.2500479  )
        13           Al  tau(  13) = (   0.0002082   0.5002952   0.5001871  )
        14           Al  tau(  14) = (   0.2499320   0.7501195   0.4997555  )
        15           Al  tau(  15) = (   0.2506361   0.4996019   0.7494255  )
        16           Al  tau(  16) = (  -0.0006199   0.7494434   0.7499870  )
        17           Al  tau(  17) = (   0.5003850  -0.0001898  -0.0000732  )
        18           Al  tau(  18) = (   0.7498343   0.2501778  -0.0004407  )
        19           Al  tau(  19) = (   0.7493109  -0.0001812   0.2501458  )
        20           Al  tau(  20) = (   0.4999530   0.2499270   0.2496819  )
        21           Al  tau(  21) = (   0.4998509   0.0005536   0.4999482  )
        22           Al  tau(  22) = (   0.7501292   0.2494251   0.4999098  )
        23           Al  tau(  23) = (   0.7500676  -0.0001298   0.7500485  )
        24           Al  tau(  24) = (   0.5000215   0.2497853   0.7499902  )
        25           Al  tau(  25) = (   0.4997214   0.5002185  -0.0004144  )
        26           Al  tau(  26) = (   0.7495697   0.7501849   0.0005172  )
        27           Al  tau(  27) = (   0.7501903   0.4996254   0.2498983  )
        28           Al  tau(  28) = (   0.5001659   0.7496046   0.2503955  )
        29           Al  tau(  29) = (   0.4993878   0.5001941   0.5000764  )
        30           Al  tau(  30) = (   0.7503133   0.7499759   0.4997253  )
        31           Al  tau(  31) = (   0.7499001   0.5000179   0.7502634  )
        32           Al  tau(  32) = (   0.5000268   0.7499029   0.7498445  )

     number of k points=    14  Marzari-Vanderbilt smearing, width (Ry)=  0.0050
                       cart. coord. in units 2pi/alat
        k(    1) = (   0.1666667   0.1666667   0.1666667), wk =   0.1481481
        k(    2) = (   0.1666667   0.1666667  -0.5000000), wk =   0.1481481
        k(    3) = (   0.1666667  -0.5000000  -0.5000000), wk =   0.1481481
        k(    4) = (  -0.5000000  -0.5000000  -0.5000000), wk =   0.0740741
        k(    5) = (  -0.1666667  -0.1666667   0.1666667), wk =   0.1481481
        k(    6) = (  -0.1666667   0.1666667  -0.1666667), wk =   0.1481481
        k(    7) = (   0.1666667  -0.1666667  -0.1666667), wk =   0.1481481
        k(    8) = (  -0.1666667   0.1666667   0.5000000), wk =   0.1481481
        k(    9) = (  -0.5000000  -0.1666667   0.1666667), wk =   0.1481481
        k(   10) = (   0.5000000  -0.1666667  -0.1666667), wk =   0.1481481
        k(   11) = (  -0.1666667  -0.5000000   0.1666667), wk =   0.1481481
        k(   12) = (  -0.1666667   0.5000000  -0.1666667), wk =   0.1481481
        k(   13) = (  -0.5000000   0.1666667   0.5000000), wk =   0.1481481
        k(   14) = (  -0.5000000   0.5000000   0.1666667), wk =   0.1481481

     Dense  grid:    25269 G-vectors     FFT dimensions: (  40,  40,  40)

     Estimated max dynamical RAM per process >      10.55 MB

     Estimated total dynamical RAM >     210.93 MB

     Initial potential from superposition of free atoms

     starting charge   95.92671, renormalised to   96.00000
     Starting wfcs are  128 randomized atomic wfcs
     Checking if some PAW data can be deallocated... 

     total cpu time spent up to now is        1.3 secs

     Self-consistent Calculation

     iteration #  1     ecut=    66.00 Ry     beta= 0.10
     Davidson diagonalization with overlap
     ethr =  1.00E-02,  avg # of iterations =  5.5

     total cpu time spent up to now is        3.2 secs

     total energy              =   -1133.21439337 Ry
     Harris-Foulkes estimate   =   -1134.45705462 Ry
     estimated scf accuracy    <       1.39594557 Ry

     iteration #  2     ecut=    66.00 Ry     beta= 0.10
     Davidson diagonalization with overlap
     ethr =  1.45E-03,  avg # of iterations =  2.8

     total cpu time spent up to now is        4.2 secs

     total energy              =   -1129.53636220 Ry
     Harris-Foulkes estimate   =   -1133.30466499 Ry
     estimated scf accuracy    <       1.20972689 Ry

     iteration #  3     ecut=    66.00 Ry     beta= 0.10
     Davidson diagonalization with overlap
     ethr =  1.26E-03,  avg # of iterations =  3.9

     total cpu time spent up to now is        5.6 secs

     total energy              =   -1130.07361012 Ry
     Harris-Foulkes estimate   =   -1130.49764189 Ry
     estimated scf accuracy    <       0.19582112 Ry

     iteration #  4     ecut=    66.00 Ry     beta= 0.10
     Davidson diagonalization with overlap
     ethr =  2.04E-04,  avg # of iterations =  3.5

     total cpu time spent up to now is        6.6 secs

     total energy              =   -1129.96993425 Ry
     Harris-Foulkes estimate   =   -1130.09791217 Ry
     estimated scf accuracy    <       0.12020923 Ry

     iteration #  5     ecut=    66.00 Ry     beta= 0.10
     Davidson diagonalization with overlap
     ethr =  1.25E-04,  avg # of iterations =  2.4

     total cpu time spent up to now is        7.5 secs

     total energy              =   -1129.99010152 Ry
     Harris-Foulkes estimate   =   -1129.98417178 Ry
     estimated scf accuracy    <       0.00886842 Ry

     iteration #  6     ecut=    66.00 Ry     beta= 0.10
     Davidson diagonalization with overlap
     ethr =  9.24E-06,  avg # of iterations = 11.0

     total cpu time spent up to now is       10.5 secs

     total energy              =   -1130.00058178 Ry
     Harris-Foulkes estimate   =   -1129.99858720 Ry
     estimated scf accuracy    <       0.00782065 Ry

     iteration #  7     ecut=    66.00 Ry     beta= 0.10
     Davidson diagonalization with overlap
     ethr =  8.15E-06,  avg # of iterations =  1.0

     total cpu time spent up to now is       11.2 secs

     total energy              =   -1129.99954160 Ry
     Harris-Foulkes estimate   =   -1130.00063143 Ry
     estimated scf accuracy    <       0.01007190 Ry

     iteration #  8     ecut=    66.00 Ry     beta= 0.10
     Davidson diagonalization with overlap
     ethr =  8.15E-06,  avg # of iterations =  1.0

     total cpu time spent up to now is       11.9 secs

     total energy              =   -1129.99563570 Ry
     Harris-Foulkes estimate   =   -1129.99961180 Ry
     estimated scf accuracy    <       0.00546591 Ry

     iteration #  9     ecut=    66.00 Ry     beta= 0.10
     Davidson diagonalization with overlap
     ethr =  5.69E-06,  avg # of iterations =  1.0

     total cpu time spent up to now is       12.7 secs

     total energy              =   -1129.99608831 Ry
     Harris-Foulkes estimate   =   -1129.99614174 Ry
     estimated scf accuracy    <       0.00026407 Ry

     iteration # 10     ecut=    66.00 Ry     beta= 0.10
     Davidson diagonalization with overlap
     ethr =  2.75E-07,  avg # of iterations =  6.7

     total cpu time spent up to now is       14.6 secs

     total energy              =   -1129.99598845 Ry
     Harris-Foulkes estimate   =   -1129.99619780 Ry
     estimated scf accuracy    <       0.00023400 Ry

     iteration # 11     ecut=    66.00 Ry     beta= 0.10
     Davidson diagonalization with overlap
     ethr =  2.44E-07,  avg # of iterations =  1.0

     total cpu time spent up to now is       18.9 secs

     total energy              =   -1129.99534083 Ry
     Harris-Foulkes estimate   =   -1129.99599291 Ry
     estimated scf accuracy    <       0.00019569 Ry

     iteration # 12     ecut=    66.00 Ry     beta= 0.10
     Davidson diagonalization with overlap
     ethr =  2.04E-07,  avg # of iterations =  1.9

     total cpu time spent up to now is       19.7 secs

     total energy              =   -1129.99472947 Ry
     Harris-Foulkes estimate   =   -1129.99535961 Ry
     estimated scf accuracy    <       0.00016306 Ry

     iteration # 13     ecut=    66.00 Ry     beta= 0.10
     Davidson diagonalization with overlap
     ethr =  1.70E-07,  avg # of iterations =  3.1

     total cpu time spent up to now is       20.8 secs

     total energy              =   -1129.99453232 Ry
     Harris-Foulkes estimate   =   -1129.99475065 Ry
     estimated scf accuracy    <       0.00006061 Ry

     iteration # 14     ecut=    66.00 Ry     beta= 0.10
     Davidson diagonalization with overlap
     ethr =  6.31E-08,  avg # of iterations =  3.8

     total cpu time spent up to now is       22.1 secs

     total energy              =   -1129.99456025 Ry
     Harris-Foulkes estimate   =   -1129.99454768 Ry
     estimated scf accuracy    <       0.00001203 Ry

     iteration # 15     ecut=    66.00 Ry     beta= 0.10
     Davidson diagonalization with overlap
     ethr =  1.25E-08,  avg # of iterations =  1.6

     total cpu time spent up to now is       22.9 secs

     total energy              =   -1129.99455411 Ry
     Harris-Foulkes estimate   =   -1129.99456081 Ry
     estimated scf accuracy    <       0.00001365 Ry

     iteration # 16     ecut=    66.00 Ry     beta= 0.10
     Davidson diagonalization with overlap
     ethr =  1.25E-08,  avg # of iterations =  1.0

     total cpu time spent up to now is       23.6 secs

     total energy              =   -1129.99455090 Ry
     Harris-Foulkes estimate   =   -1129.99455428 Ry
     estimated scf accuracy    <       0.00001056 Ry

     iteration # 17     ecut=    66.00 Ry     beta= 0.10
     Davidson diagonalization with overlap
     ethr =  1.10E-08,  avg # of iterations =  1.2

     total cpu time spent up to now is       24.4 secs

     total energy              =   -1129.99453750 Ry
     Harris-Foulkes estimate   =   -1129.99455156 Ry
     estimated scf accuracy    <       0.00000107 Ry

     iteration # 18     ecut=    66.00 Ry     beta= 0.10
     Davidson diagonalization with overlap
     ethr =  1.11E-09,  avg # of iterations =  4.3

     total cpu time spent up to now is       26.0 secs

     total energy              =   -1129.99453592 Ry
     Harris-Foulkes estimate   =   -1129.99453812 Ry
     estimated scf accuracy    <       0.00000128 Ry

     iteration # 19     ecut=    66.00 Ry     beta= 0.10
     Davidson diagonalization with overlap
     ethr =  1.11E-09,  avg # of iterations =  1.4

     total cpu time spent up to now is       26.8 secs

     End of self-consistent calculation

          k = 0.1667 0.1667 0.1667 (  4788 PWs)   bands (ev):

    30.0735  34.7160  34.7273  34.7365  37.8692  37.8772  37.8838  38.6052
    38.6157  38.6244  41.0690  41.0729  41.0765  41.3988  41.4048  41.4071
    41.4128  41.4212  41.4231  41.6436  43.6241  43.6292  43.6335  44.1627
    44.1660  44.1716  44.1748  44.1809  44.1860  44.3383  44.3502  44.3613
    46.8442  46.8565  46.8687  49.3919  52.2187  52.2215  52.2230  52.2869
    52.2920  52.2959  52.3851  52.3874  52.3897  52.3911  52.3943  52.3976
    53.9168  53.9239  53.9277  53.9322  53.9362  53.9430  53.9455  53.9513
    53.9531  53.9560

          k = 0.1667 0.1667-0.5000 (  4798 PWs)   bands (ev):

    31.8048  31.8159  36.1467  36.1533  36.1603  36.1632  39.2142  39.2189
    39.2238  39.2271  39.6728  39.6821  40.1769  40.1885  42.4697  42.4787
    42.4803  42.4859  42.5237  42.5249  42.5272  42.5303  43.5355  43.5377
    43.5463  43.5491  44.6249  44.6263  44.6318  44.6347  44.7572  44.7605
    47.9691  47.9873  50.0543  50.0672  50.0768  50.0841  51.3870  51.3948
    51.4009  51.4103  52.2940  52.2968  52.2994  52.3030  52.3284  52.3410
    52.3486  52.3597  52.6512  52.6645  53.9156  53.9405  54.3138  54.3151
    54.3158  54.3171

          k = 0.1667-0.5000-0.5000 (  4724 PWs)   bands (ev):

    33.4030  33.4096  33.4190  33.4238  37.4064  37.4124  37.4210  37.4254
    40.4145  40.4191  40.4259  40.4293  41.5597  41.5688  41.5788  41.5806
    41.5839  41.5862  41.5926  41.5999  43.7757  43.7768  43.7790  43.7805
    44.6481  44.6537  44.6626  44.6634  44.6644  44.6677  44.6711  44.6770
    49.0443  49.0519  49.0585  49.0666  49.0716  49.0757  49.0805  49.0903
    51.4746  51.4787  51.4859  51.4906  52.8302  52.8343  52.8421  52.8479
    53.2484  53.2519  53.2600  53.2645  53.2743  53.2794  53.2872  53.2926
    54.7016  54.7040

          k =-0.5000-0.5000-0.5000 (  4776 PWs)   bands (ev):

    34.8432  34.8547  34.8559  34.8641  34.8680  34.8701  34.8821  34.8852
    42.8534  42.8572  42.8624  42.8694  42.8745  42.8767  42.8779  42.8792
    42.8804  42.8822  42.8842  42.8857  42.8906  42.8947  42.8956  42.8995
    42.9003  42.9040  42.9056  42.9124  42.9145  42.9166  42.9195  42.9248
    50.9950  51.0074  51.0121  51.0175  51.0197  51.0245  51.0292  51.0336
    51.0342  51.0369  51.0385  51.0408  51.0448  51.0462  51.0492  51.0562
    51.0577  51.0649  51.0650  51.0717  51.0754  51.0802  51.0861  51.0880
    58.6621  58.6666

          k =-0.1667-0.1667 0.1667 (  4788 PWs)   bands (ev):

    30.0735  34.7179  34.7274  34.7345  37.8706  37.8774  37.8824  38.6068
    38.6159  38.6226  41.0705  41.0728  41.0751  41.3927  41.4033  41.4083
    41.4090  41.4228  41.4319  41.6433  43.6247  43.6293  43.6327  44.1628
    44.1677  44.1725  44.1748  44.1801  44.1848  44.3429  44.3496  44.3567
    46.8490  46.8564  46.8640  49.3919  52.2197  52.2209  52.2226  52.2886
    52.2912  52.2943  52.3864  52.3878  52.3887  52.3926  52.3942  52.3959
    53.9151  53.9202  53.9295  53.9373  53.9404  53.9419  53.9464  53.9491
    53.9527  53.9590

          k =-0.1667 0.1667-0.1667 (  4788 PWs)   bands (ev):

    30.0735  34.7168  34.7265  34.7364  37.8699  37.8768  37.8837  38.6058
    38.6150  38.6244  41.0688  41.0728  41.0769  41.3912  41.4010  41.4110
    41.4155  41.4224  41.4273  41.6430  43.6245  43.6288  43.6335  44.1635
    44.1680  44.1711  44.1757  44.1801  44.1839  44.3374  44.3500  44.3621
    46.8432  46.8565  46.8697  49.3919  52.2193  52.2208  52.2228  52.2872
    52.2927  52.2959  52.3852  52.3880  52.3906  52.3915  52.3935  52.3954
    53.9150  53.9237  53.9300  53.9347  53.9381  53.9409  53.9453  53.9476
    53.9539  53.9563

          k = 0.1667-0.1667-0.1667 (  4788 PWs)   bands (ev):

    30.0735  34.7155  34.7292  34.7351  37.8687  37.8787  37.8827  38.6050
    38.6175  38.6231  41.0682  41.0728  41.0774  41.3911  41.4036  41.4095
    41.4143  41.4209  41.4284  41.6436  43.6235  43.6302  43.6327  44.1642
    44.1664  44.1696  44.1753  44.1805  44.1861  44.3365  44.3499  44.3636
    46.8418  46.8564  46.8713  49.3917  52.2193  52.2208  52.2225  52.2865
    52.2911  52.2961  52.3848  52.3871  52.3888  52.3938  52.3947  52.3977
    53.9141  53.9237  53.9280  53.9329  53.9373  53.9398  53.9494  53.9507
    53.9532  53.9577

          k =-0.1667 0.1667 0.5000 (  4798 PWs)   bands (ev):

    31.8048  31.8159  36.1451  36.1550  36.1577  36.1655  39.2130  39.2201
    39.2223  39.2286  39.6728  39.6822  40.1769  40.1884  42.4668  42.4729
    42.4835  42.4914  42.5217  42.5243  42.5289  42.5313  43.5359  43.5375
    43.5468  43.5484  44.6242  44.6271  44.6313  44.6352  44.7572  44.7605
    47.9691  47.9873  50.0513  50.0655  50.0751  50.0906  51.3901  51.3933
    51.4023  51.4070  52.2929  52.2978  52.2987  52.3048  52.3340  52.3396
    52.3497  52.3535  52.6511  52.6648  53.9155  53.9404  54.3132  54.3136
    54.3172  54.3178

          k =-0.5000-0.1667 0.1667 (  4798 PWs)   bands (ev):

    31.8043  31.8164  36.1458  36.1523  36.1570  36.1682  39.2136  39.2181
    39.2223  39.2304  39.6724  39.6820  40.1764  40.1893  42.4656  42.4810
    42.4833  42.4843  42.5229  42.5246  42.5267  42.5322  43.5356  43.5367
    43.5471  43.5494  44.6226  44.6272  44.6325  44.6349  44.7573  44.7608
    47.9681  47.9883  50.0487  50.0718  50.0769  50.0849  51.3876  51.3934
    51.4044  51.4076  52.2921  52.2983  52.3002  52.3028  52.3321  52.3378
    52.3501  52.3571  52.6497  52.6664  53.9142  53.9421  54.3128  54.3143
    54.3163  54.3183

          k = 0.5000-0.1667-0.1667 (  4798 PWs)   bands (ev):

    31.8043  31.8164  36.1447  36.1535  36.1559  36.1693  39.2121  39.2184
    39.2211  39.2320  39.6729  39.6825  40.1764  40.1892  42.4678  42.4741
    42.4820  42.4893  42.5227  42.5248  42.5290  42.5307  43.5342  43.5374
    43.5455  43.5517  44.6226  44.6279  44.6322  44.6346  44.7574  44.7606
    47.9682  47.9882  50.0518  50.0661  50.0743  50.0904  51.3851  51.3944
    51.4002  51.4131  52.2928  52.2976  52.2993  52.3049  52.3207  52.3427
    52.3483  52.3641  52.6498  52.6664  53.9141  53.9420  54.3133  54.3138
    54.3170  54.3172

          k =-0.1667-0.5000 0.1667 (  4798 PWs)   bands (ev):

    31.8086  31.8121  36.1444  36.1524  36.1622  36.1644  39.2113  39.2190
    39.2256  39.2282  39.6760  39.6788  40.1810  40.1846  42.4766  42.4774
    42.4796  42.4806  42.5257  42.5260  42.5271  42.5276  43.5364  43.5423
    43.5438  43.5462  44.6264  44.6265  44.6303  44.6342  44.7585  44.7594
    47.9753  47.9810  50.0668  50.0683  50.0732  50.0746  51.3885  51.3968
    51.4011  51.4062  52.2967  52.2974  52.2997  52.3000  52.3291  52.3409
    52.3467  52.3602  52.6549  52.6608  53.9243  53.9321  54.3148  54.3150
    54.3157  54.3162

          k =-0.1667 0.5000-0.1667 (  4798 PWs)   bands (ev):

    31.8086  31.8121  36.1452  36.1504  36.1626  36.1651  39.2132  39.2172
    39.2261  39.2280  39.6758  39.6787  40.1809  40.1845  42.4697  42.4793
    42.4803  42.4854  42.5230  42.5259  42.5267  42.5304  43.5385  43.5416
    43.5429  43.5457  44.6258  44.6275  44.6305  44.6336  44.7583  44.7594
    47.9755  47.9811  50.0578  50.0727  50.0734  50.0784  51.3938  51.3968
    51.3985  51.4034  52.2945  52.2991  52.2997  52.3007  52.3370  52.3429
    52.3473  52.3502  52.6549  52.6607  53.9243  53.9321  54.3130  54.3151
    54.3160  54.3175

          k =-0.5000 0.1667 0.5000 (  4724 PWs)   bands (ev):

    33.3992  33.4091  33.4176  33.4296  37.4029  37.4120  37.4197  37.4306
    40.4116  40.4189  40.4246  40.4335  41.5645  41.5719  41.5738  41.5790
    41.5814  41.5889  41.5915  41.5998  43.7742  43.7774  43.7788  43.7814
    44.6514  44.6564  44.6578  44.6616  44.6641  44.6687  44.6718  44.6761
    49.0373  49.0520  49.0621  49.0651  49.0672  49.0793  49.0874  49.0891
    51.4702  51.4811  51.4848  51.4941  52.8239  52.8366  52.8414  52.8518
    53.2496  53.2549  53.2602  53.2645  53.2719  53.2771  53.2854  53.2952
    54.6996  54.7042

          k =-0.5000 0.5000 0.1667 (  4724 PWs)   bands (ev):

    33.4064  33.4077  33.4179  33.4235  37.4094  37.4107  37.4200  37.4252
    40.4167  40.4178  40.4249  40.4290  41.5633  41.5662  41.5725  41.5803
    41.5831  41.5930  41.5954  41.5972  43.7755  43.7767  43.7795  43.7799
    44.6510  44.6517  44.6578  44.6633  44.6648  44.6715  44.6726  44.6754
    49.0476  49.0531  49.0614  49.0649  49.0666  49.0745  49.0820  49.0894
    51.4746  51.4787  51.4872  51.4896  52.8289  52.8342  52.8441  52.8469
    53.2449  53.2556  53.2624  53.2644  53.2710  53.2804  53.2839  53.2959
    54.7019  54.7035

     the Fermi energy is    52.4188 ev

!    total energy              =   -1129.99453498 Ry
     Harris-Foulkes estimate   =   -1129.99453600 Ry
     estimated scf accuracy    <       0.00000018 Ry

     total all-electron energy =    -15406.563557 Ry

     The total energy is the sum of the following terms:

     one-electron contribution =     469.26929304 Ry
     hartree contribution      =       1.72824922 Ry
     xc contribution           =    -138.28758616 Ry
     ewald contribution        =    -326.84024986 Ry
     one-center paw contrib.   =   -1135.86810828 Ry
     smearing contrib. (-TS)   =       0.00386707 Ry

     convergence has been achieved in  19 iterations

     Forces acting on atoms (cartesian axes, Ry/au):

     atom    1 type  1   force =    -0.00166502   -0.00702303    0.00114043
     atom    2 type  1   force =    -0.00474125   -0.00681962    0.01480269
     atom    3 type  1   force =     0.01425092    0.00238043   -0.01952148
     atom    4 type  1   force =    -0.00806735    0.00684355   -0.02641686
     atom    5 type  1   force =    -0.01338229   -0.01112056    0.01628707
     atom    6 type  1   force =    -0.01034781    0.00629365   -0.00902398
     atom    7 type  1   force =    -0.01748454   -0.03153786    0.01120065
     atom    8 type  1   force =    -0.00756379    0.01366737   -0.00139103
     atom    9 type  1   force =     0.02632227    0.00579618   -0.00271478
     atom   10 type  1   force =    -0.00447240    0.01605879   -0.02423406
     atom   11 type  1   force =    -0.00782258   -0.01984052   -0.00964327
     atom   12 type  1   force =    -0.01744919   -0.00864843   -0.01146495
     atom   13 type  1   force =    -0.00437656   -0.01825527    0.00795773
     atom   14 type  1   force =    -0.01205970    0.02307543    0.01757926
     atom   15 type  1   force =    -0.01302152    0.01637002    0.01401056
     atom   16 type  1   force =     0.02267321    0.00817080    0.01599109
     atom   17 type  1   force =    -0.01690584   -0.00803261   -0.00233735
     atom   18 type  1   force =     0.00940485   -0.00264383    0.01393198
     atom   19 type  1   force =     0.01670652    0.01685191   -0.00188457
     atom   20 type  1   force =     0.00928276    0.02519287   -0.01150194
     atom   21 type  1   force =     0.00360789   -0.01997467    0.01091748
     atom   22 type  1   force =    -0.00182273    0.02116770    0.01157434
     atom   23 type  1   force =     0.01448771   -0.01066745   -0.01345431
     atom   24 type  1   force =     0.01493419    0.00318958    0.00668678
     atom   25 type  1   force =    -0.01943983    0.00134580    0.00367192
     atom   26 type  1   force =     0.00877065   -0.00807364    0.00781509
     atom   27 type  1   force =    -0.01024603   -0.01180223    0.00431847
     atom   28 type  1   force =     0.00727040   -0.00307570    0.00913524
     atom   29 type  1   force =     0.03638383   -0.01980581    0.00489822
     atom   30 type  1   force =    -0.00166163    0.00918524   -0.00521593
     atom   31 type  1   force =    -0.01258642   -0.00409922   -0.01779567
     atom   32 type  1   force =     0.00102129    0.01583113   -0.01531879

     Total force =     0.132445     Total SCF correction =     0.000328


     Computing stress (Cartesian axis) and pressure

          total   stress  (Ry/bohr**3)                   (kbar)     P=59654.30
   0.40552211   0.00000464  -0.00001395      59654.35      0.68     -2.05
   0.00000464   0.40552094   0.00000391          0.68  59654.18      0.58
  -0.00001395   0.00000391   0.40552225         -2.05      0.58  59654.37


     Writing output data file fe_scf_fcc_2.save/
 
     init_run     :      0.69s CPU      0.77s WALL (       1 calls)
     electrons    :     24.46s CPU     25.45s WALL (       1 calls)
     forces       :      0.13s CPU      0.15s WALL (       1 calls)
     stress       :      0.23s CPU      0.23s WALL (       1 calls)

     Called by init_run:
     wfcinit      :      0.57s CPU      0.61s WALL (       1 calls)
     potinit      :      0.07s CPU      0.07s WALL (       1 calls)
     hinit0       :      0.04s CPU      0.08s WALL (       1 calls)

     Called by electrons:
     c_bands      :     18.04s CPU     18.71s WALL (      19 calls)
     sum_band     :      4.08s CPU      4.38s WALL (      19 calls)
     v_of_rho     :      0.04s CPU      0.05s WALL (      20 calls)
     newd         :      0.03s CPU      0.03s WALL (      20 calls)
     PAW_pot      :      1.29s CPU      1.30s WALL (      20 calls)
     mix_rho      :      1.02s CPU      1.02s WALL (      19 calls)

     Called by c_bands:
     init_us_2    :      0.16s CPU      0.17s WALL (     574 calls)
     cegterg      :     17.39s CPU     18.04s WALL (     266 calls)

     Called by sum_band:
     sum_band:bec :      0.03s CPU      0.03s WALL (     266 calls)
     addusdens    :      0.02s CPU      0.02s WALL (      19 calls)

     Called by *egterg:
     h_psi        :      7.84s CPU      8.37s WALL (    1094 calls)
     s_psi        :      0.71s CPU      0.72s WALL (    1094 calls)
     g_psi        :      0.04s CPU      0.05s WALL (     814 calls)
     cdiaghg      :      7.35s CPU      7.39s WALL (    1080 calls)

     Called by h_psi:
     h_psi:pot    :      7.80s CPU      8.32s WALL (    1094 calls)
     h_psi:calbec :      1.03s CPU      1.20s WALL (    1094 calls)
     vloc_psi     :      6.00s CPU      6.34s WALL (    1094 calls)
     add_vuspsi   :      0.76s CPU      0.77s WALL (    1094 calls)

     General routines
     calbec       :      1.84s CPU      2.25s WALL (    1430 calls)
     fft          :      0.08s CPU      0.12s WALL (     246 calls)
     ffts         :      0.01s CPU      0.01s WALL (      19 calls)
     fftw         :      8.73s CPU      9.13s WALL (   97212 calls)
 
     Parallel routines
     fft_scatt_xy :      0.51s CPU      0.54s WALL (   97477 calls)
     fft_scatt_yz :      6.20s CPU      6.47s WALL (   97477 calls)
 
     PWSCF        :    26.18s CPU        27.49s WALL

 
   This run was terminated on:  19:11:54  22Oct2019            

=------------------------------------------------------------------------------=
   JOB DONE.
=------------------------------------------------------------------------------=
