
     Program PWSCF v.6.3 starts on 22Oct2019 at 23:50:18 

     This program is part of the open-source Quantum ESPRESSO suite
     for quantum simulation of materials; please cite
         "P. Giannozzi et al., J. Phys.:Condens. Matter 21 395502 (2009);
         "P. Giannozzi et al., J. Phys.:Condens. Matter 29 465901 (2017);
          URL http://www.quantum-espresso.org", 
     in publications or presentations arising from this work. More details at
     http://www.quantum-espresso.org/quote

     Parallel version (MPI & OpenMP), running on      20 processor cores
     Number of MPI processes:                20
     Threads/MPI process:                     1

     MPI processes distributed on     1 nodes
     R & G space division:  proc/nbgrp/npool/nimage =      20
     Reading input from /rds/homes/b/bxp912/jobs/20191022_test2/wd/runpwscf/file_10242.in
Warning: card &IONS ignored
Warning: card ION_DYNAMICS = 'BFGS', ignored
Warning: card / ignored
Warning: card &CELL ignored
Warning: card CELL_DYNAMICS = 'BFGS', ignored
Warning: card CELL_FACTOR = 2.0, ignored
Warning: card PRESS = 0.0, ignored
Warning: card / ignored

     Current dimensions of program PWSCF are:
     Max number of different atomic species (ntypx) = 10
     Max number of k-points (npk) =  40000
     Max angular momentum in pseudopotentials (lmaxx) =  3
     Message from routine read_upf::
     Pseudo file /rds/homes/b/bxp912/pp/Al.pbe-nl-kjpaw_psl.1.0.0.UPF has been successfully fixed on the fly.
To avoid this message in the future you can permanently fix 
 your pseudo files following instructions given in: 
https://gitlab.com/QEF/q-e/blob/master/upftools/how_to_fix_upf.md
               file Al.pbe-nl-kjpaw_psl.1.0.0.UPF: wavefunction(s)  3S 3P renormalized

     Subspace diagonalization in iterative solution of the eigenvalue problem:
     a serial algorithm will be used

 
     Parallelization info
     --------------------
     sticks:   dense  smooth     PW     G-vecs:    dense   smooth      PW
     Min          52      52     20                 1262     1262     300
     Max          53      53     21                 1265     1265     303
     Sum        1041    1041    401                25269    25269    6031
 


     bravais-lattice index     =            0
     lattice parameter (alat)  =       8.0800  a.u.
     unit-cell volume          =     527.5141 (a.u.)^3
     number of atoms/cell      =           32
     number of atomic types    =            1
     number of electrons       =        96.00
     number of Kohn-Sham states=           58
     kinetic-energy cutoff     =      66.0000  Ry
     charge density cutoff     =     200.0000  Ry
     convergence threshold     =      1.0E-06
     mixing beta               =       0.1000
     number of iterations used =           10  TF        mixing
     Exchange-correlation      = SLA PW PBX PBC ( 1  4  3  4 0 0)

     celldm(1)=   8.080000  celldm(2)=   0.000000  celldm(3)=   0.000000
     celldm(4)=   0.000000  celldm(5)=   0.000000  celldm(6)=   0.000000

     crystal axes: (cart. coord. in units of alat)
               a(1) = (   1.000000   0.000000   0.000000 )  
               a(2) = (   0.000000   1.000000   0.000000 )  
               a(3) = (   0.000000   0.000000   1.000000 )  

     reciprocal axes: (cart. coord. in units 2 pi/alat)
               b(1) = (  1.000000  0.000000  0.000000 )  
               b(2) = (  0.000000  1.000000  0.000000 )  
               b(3) = (  0.000000  0.000000  1.000000 )  


     PseudoPot. # 1 for Al read from file:
     /rds/homes/b/bxp912/pp/Al.pbe-nl-kjpaw_psl.1.0.0.UPF
     MD5 check sum: 339dbea23cf3ab9a065ad45c0f9085d7
     Pseudo is Projector augmented-wave + core cor, Zval =  3.0
     Generated using "atomic" code by A. Dal Corso v.5.1
     Shape of augmentation charge: PSQ
     Using radial grid of 1135 points,  4 beta functions with: 
                l(1) =   0
                l(2) =   0
                l(3) =   1
                l(4) =   1
     Q(r) pseudized with 0 coefficients 


     atomic species   valence    mass     pseudopotential
        Al             3.00    26.98200     Al( 1.00)

     No symmetry found



   Cartesian axes

     site n.     atom                  positions (alat units)
         1           Al  tau(   1) = (  -0.0000618   0.0000180   0.0001286  )
         2           Al  tau(   2) = (   0.2501504   0.2496409   0.0001329  )
         3           Al  tau(   3) = (   0.2498245   0.0000576   0.2505585  )
         4           Al  tau(   4) = (  -0.0000378   0.2504134   0.2503472  )
         5           Al  tau(   5) = (   0.0004835   0.0004765   0.4997751  )
         6           Al  tau(   6) = (   0.2502257   0.2496836   0.5000068  )
         7           Al  tau(   7) = (   0.2500525   0.0002908   0.7497884  )
         8           Al  tau(   8) = (   0.0001038   0.2502148   0.7503971  )
         9           Al  tau(   9) = (   0.0004488   0.5002037  -0.0000292  )
        10           Al  tau(  10) = (   0.2502638   0.7503330   0.0007661  )
        11           Al  tau(  11) = (   0.2503574   0.5002057   0.2504745  )
        12           Al  tau(  12) = (   0.0000725   0.7500861   0.2500479  )
        13           Al  tau(  13) = (   0.0002082   0.5002952   0.5001871  )
        14           Al  tau(  14) = (   0.2499320   0.7501195   0.4997555  )
        15           Al  tau(  15) = (   0.2506361   0.4996019   0.7494255  )
        16           Al  tau(  16) = (  -0.0006199   0.7494434   0.7499870  )
        17           Al  tau(  17) = (   0.5003850  -0.0001898  -0.0000732  )
        18           Al  tau(  18) = (   0.7498343   0.2501778  -0.0004407  )
        19           Al  tau(  19) = (   0.7493109  -0.0001812   0.2501458  )
        20           Al  tau(  20) = (   0.4999530   0.2499270   0.2496819  )
        21           Al  tau(  21) = (   0.4998509   0.0005536   0.4999482  )
        22           Al  tau(  22) = (   0.7501292   0.2494251   0.4999098  )
        23           Al  tau(  23) = (   0.7500676  -0.0001298   0.7500485  )
        24           Al  tau(  24) = (   0.5000215   0.2497853   0.7499902  )
        25           Al  tau(  25) = (   0.4997214   0.5002185  -0.0004144  )
        26           Al  tau(  26) = (   0.7495697   0.7501849   0.0005172  )
        27           Al  tau(  27) = (   0.7501903   0.4996254   0.2498983  )
        28           Al  tau(  28) = (   0.5001659   0.7496046   0.2503955  )
        29           Al  tau(  29) = (   0.4993878   0.5001941   0.5000764  )
        30           Al  tau(  30) = (   0.7503133   0.7499759   0.4997253  )
        31           Al  tau(  31) = (   0.7499001   0.5000179   0.7502634  )
        32           Al  tau(  32) = (   0.5000268   0.7499029   0.7498445  )

     number of k points=    63  Marzari-Vanderbilt smearing, width (Ry)=  0.0080
                       cart. coord. in units 2pi/alat
        k(    1) = (   0.1000000   0.1000000   0.1000000), wk =   0.0320000
        k(    2) = (   0.1000000   0.1000000   0.3000000), wk =   0.0320000
        k(    3) = (   0.1000000   0.1000000  -0.5000000), wk =   0.0320000
        k(    4) = (   0.1000000   0.3000000   0.3000000), wk =   0.0320000
        k(    5) = (   0.1000000   0.3000000  -0.5000000), wk =   0.0320000
        k(    6) = (   0.1000000  -0.5000000  -0.5000000), wk =   0.0320000
        k(    7) = (   0.3000000   0.3000000   0.3000000), wk =   0.0320000
        k(    8) = (   0.3000000   0.3000000  -0.5000000), wk =   0.0320000
        k(    9) = (   0.3000000  -0.5000000  -0.5000000), wk =   0.0320000
        k(   10) = (  -0.5000000  -0.5000000  -0.5000000), wk =   0.0160000
        k(   11) = (  -0.1000000  -0.1000000   0.1000000), wk =   0.0320000
        k(   12) = (  -0.1000000   0.1000000  -0.1000000), wk =   0.0320000
        k(   13) = (   0.1000000  -0.1000000  -0.1000000), wk =   0.0320000
        k(   14) = (  -0.1000000  -0.1000000   0.3000000), wk =   0.0320000
        k(   15) = (  -0.1000000   0.1000000  -0.3000000), wk =   0.0320000
        k(   16) = (   0.1000000  -0.1000000  -0.3000000), wk =   0.0320000
        k(   17) = (   0.3000000  -0.1000000   0.1000000), wk =   0.0320000
        k(   18) = (  -0.3000000  -0.1000000  -0.1000000), wk =   0.0320000
        k(   19) = (   0.3000000   0.1000000  -0.1000000), wk =   0.0320000
        k(   20) = (  -0.3000000   0.1000000   0.1000000), wk =   0.0320000
        k(   21) = (  -0.1000000   0.3000000   0.1000000), wk =   0.0320000
        k(   22) = (  -0.1000000  -0.3000000  -0.1000000), wk =   0.0320000
        k(   23) = (   0.1000000   0.3000000  -0.1000000), wk =   0.0320000
        k(   24) = (   0.1000000  -0.3000000   0.1000000), wk =   0.0320000
        k(   25) = (  -0.1000000   0.1000000   0.5000000), wk =   0.0320000
        k(   26) = (  -0.5000000  -0.1000000   0.1000000), wk =   0.0320000
        k(   27) = (   0.5000000  -0.1000000  -0.1000000), wk =   0.0320000
        k(   28) = (  -0.1000000  -0.5000000   0.1000000), wk =   0.0320000
        k(   29) = (  -0.1000000   0.5000000  -0.1000000), wk =   0.0320000
        k(   30) = (  -0.1000000  -0.3000000   0.3000000), wk =   0.0320000
        k(   31) = (  -0.1000000   0.3000000  -0.3000000), wk =   0.0320000
        k(   32) = (   0.1000000  -0.3000000  -0.3000000), wk =   0.0320000
        k(   33) = (   0.3000000   0.1000000  -0.3000000), wk =   0.0320000
        k(   34) = (  -0.3000000  -0.1000000  -0.3000000), wk =   0.0320000
        k(   35) = (   0.3000000  -0.1000000   0.3000000), wk =   0.0320000
        k(   36) = (  -0.3000000   0.1000000   0.3000000), wk =   0.0320000
        k(   37) = (   0.3000000  -0.3000000   0.1000000), wk =   0.0320000
        k(   38) = (  -0.3000000  -0.3000000  -0.1000000), wk =   0.0320000
        k(   39) = (   0.3000000   0.3000000  -0.1000000), wk =   0.0320000
        k(   40) = (  -0.3000000   0.3000000   0.1000000), wk =   0.0320000
        k(   41) = (  -0.1000000   0.3000000   0.5000000), wk =   0.0320000
        k(   42) = (   0.3000000   0.1000000   0.5000000), wk =   0.0320000
        k(   43) = (   0.3000000  -0.1000000  -0.5000000), wk =   0.0320000
        k(   44) = (  -0.5000000  -0.3000000   0.1000000), wk =   0.0320000
        k(   45) = (   0.5000000  -0.3000000  -0.1000000), wk =   0.0320000
        k(   46) = (  -0.1000000  -0.5000000   0.3000000), wk =   0.0320000
        k(   47) = (  -0.1000000   0.5000000  -0.3000000), wk =   0.0320000
        k(   48) = (   0.3000000  -0.5000000   0.1000000), wk =   0.0320000
        k(   49) = (   0.3000000   0.5000000  -0.1000000), wk =   0.0320000
        k(   50) = (  -0.5000000   0.1000000   0.3000000), wk =   0.0320000
        k(   51) = (   0.5000000  -0.1000000   0.3000000), wk =   0.0320000
        k(   52) = (  -0.5000000   0.1000000   0.5000000), wk =   0.0320000
        k(   53) = (  -0.5000000   0.5000000   0.1000000), wk =   0.0320000
        k(   54) = (  -0.3000000  -0.3000000   0.3000000), wk =   0.0320000
        k(   55) = (  -0.3000000   0.3000000  -0.3000000), wk =   0.0320000
        k(   56) = (   0.3000000  -0.3000000  -0.3000000), wk =   0.0320000
        k(   57) = (  -0.3000000   0.3000000   0.5000000), wk =   0.0320000
        k(   58) = (  -0.5000000  -0.3000000   0.3000000), wk =   0.0320000
        k(   59) = (   0.5000000  -0.3000000  -0.3000000), wk =   0.0320000
        k(   60) = (  -0.3000000  -0.5000000   0.3000000), wk =   0.0320000
        k(   61) = (  -0.3000000   0.5000000  -0.3000000), wk =   0.0320000
        k(   62) = (  -0.5000000   0.3000000   0.5000000), wk =   0.0320000
        k(   63) = (  -0.5000000   0.5000000   0.3000000), wk =   0.0320000

     Dense  grid:    25269 G-vectors     FFT dimensions: (  40,  40,  40)

     Estimated max dynamical RAM per process >      20.87 MB

     Estimated total dynamical RAM >     417.35 MB

     Initial potential from superposition of free atoms

     starting charge   95.92671, renormalised to   96.00000
     Starting wfcs are  128 randomized atomic wfcs
     Checking if some PAW data can be deallocated... 

     total cpu time spent up to now is        3.3 secs

     Self-consistent Calculation

     iteration #  1     ecut=    66.00 Ry     beta= 0.10
     Davidson diagonalization with overlap
     ethr =  1.00E-02,  avg # of iterations =  5.0

     total cpu time spent up to now is       11.2 secs

     total energy              =   -1133.16250748 Ry
     Harris-Foulkes estimate   =   -1134.40944552 Ry
     estimated scf accuracy    <       1.41632353 Ry

     iteration #  2     ecut=    66.00 Ry     beta= 0.10
     Davidson diagonalization with overlap
     ethr =  1.48E-03,  avg # of iterations =  3.7

     total cpu time spent up to now is       15.8 secs

     total energy              =   -1129.64658626 Ry
     Harris-Foulkes estimate   =   -1133.29566251 Ry
     estimated scf accuracy    <       1.22738910 Ry

     iteration #  3     ecut=    66.00 Ry     beta= 0.10
     Davidson diagonalization with overlap
     ethr =  1.28E-03,  avg # of iterations =  3.9

     total cpu time spent up to now is       22.0 secs

     total energy              =   -1130.28292776 Ry
     Harris-Foulkes estimate   =   -1130.71418624 Ry
     estimated scf accuracy    <       0.21461739 Ry

     iteration #  4     ecut=    66.00 Ry     beta= 0.10
     Davidson diagonalization with overlap
     ethr =  2.24E-04,  avg # of iterations =  2.7

     total cpu time spent up to now is       25.8 secs

     total energy              =   -1130.00434375 Ry
     Harris-Foulkes estimate   =   -1130.29814860 Ry
     estimated scf accuracy    <       0.13916376 Ry

     iteration #  5     ecut=    66.00 Ry     beta= 0.10
     Davidson diagonalization with overlap
     ethr =  1.45E-04,  avg # of iterations =  2.9

     total cpu time spent up to now is       29.9 secs

     total energy              =   -1130.03020363 Ry
     Harris-Foulkes estimate   =   -1130.02568449 Ry
     estimated scf accuracy    <       0.01436595 Ry

     iteration #  6     ecut=    66.00 Ry     beta= 0.10
     Davidson diagonalization with overlap
     ethr =  1.50E-05,  avg # of iterations =  8.4

     total cpu time spent up to now is       41.0 secs

     total energy              =   -1130.05050024 Ry
     Harris-Foulkes estimate   =   -1130.05098215 Ry
     estimated scf accuracy    <       0.01226895 Ry

     iteration #  7     ecut=    66.00 Ry     beta= 0.10
     Davidson diagonalization with overlap
     ethr =  1.28E-05,  avg # of iterations =  1.2

     total cpu time spent up to now is       44.1 secs

     total energy              =   -1130.05463747 Ry
     Harris-Foulkes estimate   =   -1130.05444794 Ry
     estimated scf accuracy    <       0.01282690 Ry

     iteration #  8     ecut=    66.00 Ry     beta= 0.10
     Davidson diagonalization with overlap
     ethr =  1.28E-05,  avg # of iterations =  1.0

     total cpu time spent up to now is       47.0 secs

     total energy              =   -1130.04261933 Ry
     Harris-Foulkes estimate   =   -1130.05466641 Ry
     estimated scf accuracy    <       0.00992441 Ry

     iteration #  9     ecut=    66.00 Ry     beta= 0.10
     Davidson diagonalization with overlap
     ethr =  1.03E-05,  avg # of iterations =  1.3

     total cpu time spent up to now is       50.1 secs

     total energy              =   -1130.04313861 Ry
     Harris-Foulkes estimate   =   -1130.04336148 Ry
     estimated scf accuracy    <       0.00173155 Ry

     iteration # 10     ecut=    66.00 Ry     beta= 0.10
     Davidson diagonalization with overlap
     ethr =  1.80E-06,  avg # of iterations =  5.6

     total cpu time spent up to now is       55.9 secs

     total energy              =   -1130.04325731 Ry
     Harris-Foulkes estimate   =   -1130.04334670 Ry
     estimated scf accuracy    <       0.00079664 Ry

     iteration # 11     ecut=    66.00 Ry     beta= 0.10
     Davidson diagonalization with overlap
     c_bands:  2 eigenvalues not converged
     ethr =  8.30E-07,  avg # of iterations =  4.6

     total cpu time spent up to now is       60.8 secs

     total energy              =   -1130.04164949 Ry
     Harris-Foulkes estimate   =   -1130.04331904 Ry
     estimated scf accuracy    <       0.00045453 Ry

     iteration # 12     ecut=    66.00 Ry     beta= 0.10
     Davidson diagonalization with overlap
     ethr =  4.73E-07,  avg # of iterations =  6.4

     total cpu time spent up to now is       69.3 secs

     total energy              =   -1130.04137496 Ry
     Harris-Foulkes estimate   =   -1130.04188611 Ry
     estimated scf accuracy    <       0.00176741 Ry

     iteration # 13     ecut=    66.00 Ry     beta= 0.10
     Davidson diagonalization with overlap
     ethr =  4.73E-07,  avg # of iterations =  1.0

     total cpu time spent up to now is       72.2 secs

     total energy              =   -1130.04123964 Ry
     Harris-Foulkes estimate   =   -1130.04139251 Ry
     estimated scf accuracy    <       0.00207349 Ry

     iteration # 14     ecut=    66.00 Ry     beta= 0.10
     Davidson diagonalization with overlap
     ethr =  4.73E-07,  avg # of iterations =  3.1

     total cpu time spent up to now is       76.4 secs

     total energy              =   -1130.04130610 Ry
     Harris-Foulkes estimate   =   -1130.04130714 Ry
     estimated scf accuracy    <       0.00358954 Ry

     iteration # 15     ecut=    66.00 Ry     beta= 0.10
     Davidson diagonalization with overlap
     ethr =  4.73E-07,  avg # of iterations =  1.0

     total cpu time spent up to now is       79.3 secs

     total energy              =   -1130.04128903 Ry
     Harris-Foulkes estimate   =   -1130.04131411 Ry
     estimated scf accuracy    <       0.00367159 Ry

     iteration # 16     ecut=    66.00 Ry     beta= 0.10
     Davidson diagonalization with overlap
     ethr =  4.73E-07,  avg # of iterations =  1.0

     total cpu time spent up to now is       82.3 secs

     total energy              =   -1130.04126267 Ry
     Harris-Foulkes estimate   =   -1130.04129404 Ry
     estimated scf accuracy    <       0.00333744 Ry

     iteration # 17     ecut=    66.00 Ry     beta= 0.10
     Davidson diagonalization with overlap
     ethr =  4.73E-07,  avg # of iterations =  1.0

     total cpu time spent up to now is       85.2 secs

     total energy              =   -1130.04125369 Ry
     Harris-Foulkes estimate   =   -1130.04126460 Ry
     estimated scf accuracy    <       0.00319259 Ry

     iteration # 18     ecut=    66.00 Ry     beta= 0.10
     Davidson diagonalization with overlap
     ethr =  4.73E-07,  avg # of iterations =  1.0

     total cpu time spent up to now is       88.1 secs

     total energy              =   -1130.04127490 Ry
     Harris-Foulkes estimate   =   -1130.04125464 Ry
     estimated scf accuracy    <       0.00304682 Ry

     iteration # 19     ecut=    66.00 Ry     beta= 0.10
     Davidson diagonalization with overlap
     ethr =  4.73E-07,  avg # of iterations =  1.0

     total cpu time spent up to now is       91.1 secs

     total energy              =   -1130.04117541 Ry
     Harris-Foulkes estimate   =   -1130.04127554 Ry
     estimated scf accuracy    <       0.00312827 Ry

     iteration # 20     ecut=    66.00 Ry     beta= 0.10
     Davidson diagonalization with overlap
     ethr =  4.73E-07,  avg # of iterations =  1.0

     total cpu time spent up to now is       94.0 secs

     total energy              =   -1130.04085424 Ry
     Harris-Foulkes estimate   =   -1130.04118114 Ry
     estimated scf accuracy    <       0.00250009 Ry

     iteration # 21     ecut=    66.00 Ry     beta= 0.10
     Davidson diagonalization with overlap
     ethr =  4.73E-07,  avg # of iterations =  4.2

     total cpu time spent up to now is       99.7 secs

     total energy              =   -1130.04101481 Ry
     Harris-Foulkes estimate   =   -1130.04109831 Ry
     estimated scf accuracy    <       0.00005527 Ry

     iteration # 22     ecut=    66.00 Ry     beta= 0.10
     Davidson diagonalization with overlap
     ethr =  5.76E-08,  avg # of iterations =  2.2

     total cpu time spent up to now is      103.4 secs

     total energy              =   -1130.04102172 Ry
     Harris-Foulkes estimate   =   -1130.04102169 Ry
     estimated scf accuracy    <       0.00001346 Ry

     iteration # 23     ecut=    66.00 Ry     beta= 0.10
     Davidson diagonalization with overlap
     ethr =  1.40E-08,  avg # of iterations =  4.0

     total cpu time spent up to now is      108.2 secs

     total energy              =   -1130.04100463 Ry
     Harris-Foulkes estimate   =   -1130.04102346 Ry
     estimated scf accuracy    <       0.00000400 Ry

     iteration # 24     ecut=    66.00 Ry     beta= 0.10
     Davidson diagonalization with overlap
     ethr =  4.17E-09,  avg # of iterations =  4.1

     total cpu time spent up to now is      114.5 secs

     total energy              =   -1130.04099563 Ry
     Harris-Foulkes estimate   =   -1130.04100664 Ry
     estimated scf accuracy    <       0.00001860 Ry

     iteration # 25     ecut=    66.00 Ry     beta= 0.10
     Davidson diagonalization with overlap
     ethr =  4.17E-09,  avg # of iterations =  4.3

     total cpu time spent up to now is      121.2 secs

     End of self-consistent calculation

          k = 0.1000 0.1000 0.1000 (  4785 PWs)   bands (ev):

    29.6291  35.1250  35.1364  35.1455  37.0419  37.0513  37.0588  39.6238
    39.6344  39.6430  40.8554  40.8578  40.8601  41.2607  41.2671  41.2691
    41.2747  41.2850  41.2858  42.7001  42.7075  42.7136  43.0653  44.2842
    44.2872  44.2930  44.2968  44.3022  44.3084  44.6171  44.6283  44.6390
    46.2175  46.2291  46.2404  47.7220  52.1399  52.1422  52.1447  52.7691
    52.7704  52.7723  52.7731  52.7750  52.7767  53.4250  53.4267  53.4288
    53.4312  53.4326  53.4344  53.7646  53.7658  53.7664  54.4532  54.4549
    54.4561  54.7122

          k = 0.1000 0.1000 0.3000 (  4773 PWs)   bands (ev):

    30.2927  33.2210  35.6653  35.6697  37.5648  37.5686  38.0402  38.0444
    38.7217  39.8168  39.8210  40.0125  40.6103  41.4474  41.4495  41.6565
    41.6637  41.7677  42.7432  42.7461  43.1167  43.4008  43.4107  43.5616
    43.5629  43.8763  43.8779  44.2331  44.2343  44.4877  44.4904  44.9385
    46.4888  47.9444  47.9555  49.4694  51.1136  52.1964  52.1988  52.3190
    52.3230  52.3639  52.3716  52.5271  52.5283  52.5788  52.5797  52.7709
    52.8526  52.8530  53.6364  53.6395  53.7498  53.7525  53.8359  53.9455
    53.9473  54.1363

          k = 0.1000 0.1000-0.5000 (  4804 PWs)   bands (ev):

    31.5349  31.5446  36.6639  36.6703  36.6759  36.6789  38.5239  38.5290
    38.5335  38.5369  39.9303  39.9428  40.7337  40.7406  42.3846  42.3924
    42.3949  42.3995  42.4594  42.4607  42.4631  42.4657  43.7766  43.7789
    43.7882  43.7912  43.8855  43.8892  44.4831  44.4848  44.4924  44.4944
    48.6365  48.6545  49.9903  50.0031  50.0134  50.0205  51.5082  51.5237
    52.2523  52.2590  52.2667  52.2741  52.3205  52.3227  52.3248  52.3268
    52.8338  52.8479  52.8554  52.8665  54.0169  54.0438  54.0771  54.0777
    54.0786  54.0797

          k = 0.1000 0.3000 0.3000 (  4792 PWs)   bands (ev):

    30.9353  33.7798  33.7932  36.1716  36.3274  38.0567  38.4447  38.4567
    39.2426  39.2486  40.2189  40.2297  40.3609  41.1817  41.1916  41.4334
    41.4473  42.0208  42.0756  43.1762  43.1822  43.3356  43.3443  43.9715
    43.9751  44.3079  44.3115  44.5347  44.5443  44.5477  45.0545  45.0700
    46.8531  46.8693  49.6499  50.2242  50.2295  51.1714  51.1753  51.2062
    51.2175  51.2523  52.0566  52.0876  52.0946  52.1209  52.6821  52.6834
    52.7407  52.7521  53.7606  53.7702  53.9915  53.9921  54.2531  54.3083
    54.3295  54.5340

          k = 0.1000 0.3000-0.5000 (  4754 PWs)   bands (ev):

    32.1415  32.1512  34.8540  34.8635  37.1255  37.1343  38.9742  38.9811
    39.2349  39.2434  40.2025  40.2077  40.4801  40.4926  40.9937  41.0004
    42.1918  42.1934  42.6597  42.6719  42.9846  42.9887  43.9869  43.9901
    44.2170  44.2279  44.4782  44.4847  44.7806  44.7881  45.0500  45.0503
    47.9014  47.9183  48.8928  48.9099  50.2008  50.2130  50.7097  50.7224
    51.5931  51.6088  51.7667  51.7786  52.0411  52.0478  52.7137  52.7175
    53.2500  53.2648  53.2742  53.2887  53.8497  53.8748  54.1264  54.1280
    54.3183  54.3260

          k = 0.1000-0.5000-0.5000 (  4740 PWs)   bands (ev):

    33.2835  33.2895  33.2987  33.3032  37.9985  38.0038  38.0119  38.0159
    39.8192  39.8235  39.8307  39.8340  41.4474  41.4557  41.4674  41.4689
    41.4708  41.4745  41.4796  41.4876  43.8120  43.8136  43.8169  43.8191
    44.8950  44.8976  44.9049  44.9062  44.9074  44.9103  44.9120  44.9161
    48.8010  48.8113  48.8148  48.8228  48.8272  48.8326  48.8365  48.8479
    51.7371  51.7412  51.7490  51.7544  53.3704  53.3744  53.3808  53.3875
    53.5658  53.5700  53.5813  53.5853  53.5941  53.6006  53.6086  53.6175
    54.1920  54.1934

          k = 0.3000 0.3000 0.3000 (  4788 PWs)   bands (ev):

    31.5557  34.3143  34.3263  34.3359  36.7605  36.7721  36.7813  38.8480
    39.7435  39.7489  39.7532  41.7414  41.7479  41.7541  41.8706  41.8750
    41.8782  41.8843  41.8909  41.8930  43.7895  43.7946  43.7977  43.8011
    43.8025  43.8084  43.8139  43.8227  43.8300  44.8384  44.8394  44.8405
    48.4405  48.4524  48.4643  49.7965  49.8029  49.8082  51.4789  51.4804
    51.4825  51.4861  51.4918  51.4977  52.3594  52.3648  52.3671  52.3713
    52.3837  52.3889  52.4229  52.4294  52.4382  53.1032  54.7223  54.7281
    54.7345  55.3096

          k = 0.3000 0.3000-0.5000 (  4758 PWs)   bands (ev):

    32.7236  32.7333  35.3435  35.3502  35.3564  35.3592  37.6249  37.6336
    40.6703  40.6736  40.6761  40.6797  41.0141  41.0267  42.6973  42.7042
    42.7070  42.7112  42.7199  42.7209  42.7238  42.7282  43.1413  43.1431
    43.1529  43.1562  44.4883  44.4906  44.4931  44.4979  44.9311  44.9396
    48.2786  48.2907  50.2926  50.3122  50.3139  50.3237  50.3390  50.3442
    50.3528  50.3635  51.5163  51.5311  51.5390  51.5515  51.9473  51.9545
    51.9558  51.9600  53.2596  53.2824  53.5647  53.5743  53.5775  53.5865
    55.2179  55.2290

          k = 0.3000-0.5000-0.5000 (  4772 PWs)   bands (ev):

    33.8238  33.8298  33.8390  33.8435  36.2906  36.2962  36.3050  36.3093
    41.5422  41.5454  41.5505  41.5530  41.9564  41.9648  41.9768  41.9783
    41.9799  41.9840  41.9890  41.9973  43.6131  43.6138  43.6152  43.6161
    43.9820  43.9891  44.0011  44.0020  44.0034  44.0082  44.0117  44.0200
    49.7316  49.7370  49.7449  49.7537  49.7613  49.7627  49.7692  49.7772
    51.0355  51.0392  51.0459  51.0499  51.8997  51.9028  51.9108  51.9159
    52.4065  52.4092  52.4142  52.4217  52.4338  52.4348  52.4438  52.4446
    56.0448  56.0481

          k =-0.5000-0.5000-0.5000 (  4776 PWs)   bands (ev):

    34.8451  34.8556  34.8576  34.8651  34.8692  34.8718  34.8826  34.8855
    42.8570  42.8602  42.8659  42.8717  42.8781  42.8799  42.8819  42.8826
    42.8842  42.8857  42.8876  42.8897  42.8936  42.8980  42.8991  42.9029
    42.9042  42.9083  42.9090  42.9152  42.9189  42.9205  42.9222  42.9282
    50.9926  51.0048  51.0093  51.0147  51.0176  51.0221  51.0269  51.0308
    51.0321  51.0349  51.0359  51.0385  51.0425  51.0442  51.0473  51.0542
    51.0557  51.0632  51.0635  51.0697  51.0738  51.0786  51.0852  51.0868
    58.6620  58.6656

          k =-0.1000-0.1000 0.1000 (  4785 PWs)   bands (ev):

    29.6291  35.1270  35.1364  35.1436  37.0435  37.0513  37.0572  39.6256
    39.6345  39.6411  40.8564  40.8578  40.8592  41.2548  41.2650  41.2703
    41.2717  41.2849  41.2957  42.7012  42.7075  42.7124  43.0652  44.2843
    44.2877  44.2933  44.2969  44.3018  44.3081  44.6215  44.6280  44.6347
    46.2221  46.2290  46.2360  47.7220  52.1408  52.1424  52.1437  52.7692
    52.7707  52.7712  52.7734  52.7759  52.7764  53.4242  53.4275  53.4297
    53.4305  53.4314  53.4342  53.7650  53.7662  53.7670  54.4538  54.4546
    54.4557  54.7055

          k =-0.1000 0.1000-0.1000 (  4785 PWs)   bands (ev):

    29.6291  35.1259  35.1356  35.1454  37.0426  37.0507  37.0587  39.6246
    39.6337  39.6429  40.8553  40.8578  40.8603  41.2526  41.2625  41.2734
    41.2781  41.2860  41.2899  42.7006  42.7070  42.7135  43.0651  44.2844
    44.2883  44.2927  44.2972  44.3019  44.3075  44.6163  44.6281  44.6399
    46.2167  46.2290  46.2414  47.7220  52.1397  52.1422  52.1450  52.7697
    52.7706  52.7718  52.7733  52.7748  52.7762  53.4263  53.4274  53.4292
    53.4303  53.4323  53.4331  53.7651  53.7656  53.7668  54.4532  54.4547
    54.4564  54.7030

          k = 0.1000-0.1000-0.1000 (  4785 PWs)   bands (ev):

    29.6291  35.1246  35.1381  35.1442  37.0414  37.0527  37.0577  39.6235
    39.6361  39.6417  40.8550  40.8577  40.8606  41.2536  41.2659  41.2719
    41.2763  41.2835  41.2912  42.6996  42.7086  42.7128  43.0653  44.2848
    44.2874  44.2920  44.2971  44.3021  44.3084  44.6152  44.6281  44.6413
    46.2153  46.2290  46.2428  47.7219  52.1393  52.1423  52.1451  52.7689
    52.7698  52.7717  52.7743  52.7754  52.7767  53.4256  53.4271  53.4282
    53.4302  53.4318  53.4339  53.7644  53.7664  53.7681  54.4530  54.4547
    54.4566  54.7019

          k =-0.1000-0.1000 0.3000 (  4773 PWs)   bands (ev):

    30.2927  33.2210  35.6653  35.6697  37.5649  37.5685  38.0402  38.0445
    38.7216  39.8173  39.8209  40.0121  40.6104  41.4473  41.4495  41.6557
    41.6644  41.7679  42.7434  42.7461  43.1165  43.4011  43.4108  43.5614
    43.5631  43.8762  43.8778  44.2331  44.2342  44.4877  44.4903  44.9386
    46.4888  47.9444  47.9556  49.4694  51.1135  52.1968  52.1983  52.3162
    52.3230  52.3640  52.3746  52.5271  52.5285  52.5785  52.5794  52.7713
    52.8522  52.8530  53.6366  53.6393  53.7512  53.7528  53.8347  53.9457
    53.9471  54.1361

          k =-0.1000 0.1000-0.3000 (  4773 PWs)   bands (ev):

    30.2927  33.2210  35.6635  35.6715  37.5635  37.5700  38.0383  38.0462
    38.7215  39.8157  39.8224  40.0123  40.6103  41.4463  41.4506  41.6527
    41.6683  41.7670  42.7424  42.7469  43.1167  43.3963  43.4157  43.5607
    43.5638  43.8754  43.8784  44.2326  44.2348  44.4866  44.4916  44.9385
    46.4888  47.9390  47.9610  49.4695  51.1136  52.1954  52.1997  52.3193
    52.3212  52.3570  52.3791  52.5270  52.5295  52.5783  52.5798  52.7702
    52.8525  52.8540  53.6357  53.6404  53.7507  53.7530  53.8339  53.9460
    53.9474  54.1359

          k = 0.1000-0.1000-0.3000 (  4773 PWs)   bands (ev):

    30.2927  33.2210  35.6635  35.6715  37.5631  37.5700  38.0385  38.0463
    38.7218  39.8158  39.8226  40.0119  40.6103  41.4463  41.4506  41.6513
    41.6687  41.7680  42.7427  42.7471  43.1159  43.3965  43.4154  43.5605
    43.5638  43.8759  43.8786  44.2327  44.2350  44.4865  44.4915  44.9384
    46.4889  47.9390  47.9610  49.4693  51.1135  52.1957  52.1996  52.3219
    52.3225  52.3547  52.3778  52.5268  52.5292  52.5785  52.5800  52.7714
    52.8521  52.8528  53.6358  53.6398  53.7502  53.7526  53.8359  53.9455
    53.9470  54.1364

          k = 0.3000-0.1000 0.1000 (  4773 PWs)   bands (ev):

    30.2927  33.2210  35.6630  35.6719  37.5631  37.5705  38.0379  38.0464
    38.7216  39.8156  39.8229  40.0119  40.6104  41.4475  41.4493  41.6575
    41.6642  41.7662  42.7421  42.7473  43.1168  43.4015  43.4100  43.5615
    43.5629  43.8755  43.8786  44.2325  44.2350  44.4863  44.4918  44.9386
    46.4888  47.9451  47.9549  49.4695  51.1134  52.1970  52.1984  52.3181
    52.3201  52.3651  52.3732  52.5278  52.5288  52.5782  52.5802  52.7707
    52.8518  52.8536  53.6358  53.6399  53.7513  53.7525  53.8345  53.9451
    53.9480  54.1359

          k =-0.3000-0.1000-0.1000 (  4773 PWs)   bands (ev):

    30.2927  33.2210  35.6611  35.6739  37.5615  37.5721  38.0358  38.0484
    38.7216  39.8137  39.8245  40.0123  40.6103  41.4465  41.4501  41.6540
    41.6678  41.7663  42.7409  42.7481  43.1171  43.3974  43.4139  43.5611
    43.5635  43.8747  43.8794  44.2319  44.2355  44.4851  44.4931  44.9386
    46.4887  47.9405  47.9595  49.4694  51.1136  52.1951  52.1993  52.3175
    52.3228  52.3600  52.3776  52.5270  52.5290  52.5775  52.5806  52.7715
    52.8520  52.8531  53.6343  53.6421  53.7500  53.7526  53.8357  53.9450
    53.9471  54.1353

          k = 0.3000 0.1000-0.1000 (  4773 PWs)   bands (ev):

    30.2927  33.2210  35.6630  35.6719  37.5632  37.5705  38.0378  38.0464
    38.7218  39.8155  39.8231  40.0118  40.6103  41.4475  41.4493  41.6573
    41.6642  41.7662  42.7421  42.7476  43.1167  43.4012  43.4101  43.5616
    43.5628  43.8757  43.8786  44.2324  44.2350  44.4863  44.4918  44.9386
    46.4887  47.9450  47.9548  49.4695  51.1136  52.1967  52.1986  52.3185
    52.3225  52.3639  52.3718  52.5274  52.5287  52.5785  52.5801  52.7717
    52.8515  52.8527  53.6355  53.6406  53.7506  53.7521  53.8359  53.9454
    53.9469  54.1360

          k =-0.3000 0.1000 0.1000 (  4773 PWs)   bands (ev):

    30.2927  33.2210  35.6611  35.6739  37.5614  37.5721  38.0359  38.0484
    38.7218  39.8135  39.8245  40.0124  40.6103  41.4465  41.4502  41.6536
    41.6678  41.7666  42.7411  42.7484  43.1169  43.3970  43.4139  43.5609
    43.5637  43.8747  43.8797  44.2319  44.2355  44.4851  44.4931  44.9386
    46.4888  47.9405  47.9595  49.4693  51.1134  52.1957  52.1987  52.3194
    52.3248  52.3580  52.3757  52.5269  52.5289  52.5776  52.5805  52.7717
    52.8521  52.8532  53.6343  53.6419  53.7509  53.7531  53.8345  53.9450
    53.9474  54.1354

          k =-0.1000 0.3000 0.1000 (  4773 PWs)   bands (ev):

    30.2927  33.2209  35.6608  35.6742  37.5609  37.5724  38.0358  38.0488
    38.7218  39.8134  39.8246  40.0124  40.6103  41.4482  41.4486  41.6585
    41.6616  41.7678  42.7409  42.7485  43.1163  43.4052  43.4062  43.5622
    43.5624  43.8747  43.8798  44.2318  44.2356  44.4848  44.4932  44.9384
    46.4889  47.9494  47.9507  49.4693  51.1135  52.1974  52.1976  52.3198
    52.3251  52.3654  52.3680  52.5270  52.5275  52.5781  52.5808  52.7715
    52.8514  52.8533  53.6338  53.6416  53.7499  53.7521  53.8366  53.9451
    53.9478  54.1356

          k =-0.1000-0.3000-0.1000 (  4773 PWs)   bands (ev):

    30.2927  33.2210  35.6597  35.6753  37.5600  37.5733  38.0349  38.0498
    38.7217  39.8126  39.8259  40.0119  40.6103  41.4474  41.4494  41.6570
    41.6631  41.7678  42.7403  42.7493  43.1163  43.4011  43.4106  43.5614
    43.5630  43.8744  43.8799  44.2314  44.2360  44.4841  44.4940  44.9384
    46.4889  47.9448  47.9552  49.4694  51.1137  52.1969  52.1987  52.3181
    52.3248  52.3601  52.3728  52.5277  52.5288  52.5773  52.5804  52.7716
    52.8526  52.8533  53.6330  53.6417  53.7515  53.7524  53.8347  53.9449
    53.9487  54.1349

          k = 0.1000 0.3000-0.1000 (  4773 PWs)   bands (ev):

    30.2927  33.2210  35.6607  35.6742  37.5612  37.5724  38.0356  38.0488
    38.7216  39.8137  39.8250  40.0117  40.6104  41.4482  41.4485  41.6598
    41.6611  41.7671  42.7409  42.7487  43.1164  43.4053  43.4064  43.5622
    43.5624  43.8744  43.8795  44.2316  44.2356  44.4849  44.4933  44.9386
    46.4888  47.9494  47.9507  49.4694  51.1135  52.1972  52.1978  52.3192
    52.3227  52.3664  52.3702  52.5274  52.5276  52.5778  52.5803  52.7717
    52.8518  52.8528  53.6338  53.6418  53.7506  53.7519  53.8354  53.9456
    53.9481  54.1352

          k = 0.1000-0.3000 0.1000 (  4773 PWs)   bands (ev):

    30.2927  33.2210  35.6597  35.6753  37.5603  37.5732  38.0347  38.0499
    38.7216  39.8124  39.8256  40.0123  40.6103  41.4475  41.4494  41.6563
    41.6643  41.7673  42.7402  42.7492  43.1167  43.4014  43.4105  43.5614
    43.5629  43.8741  43.8799  44.2315  44.2360  44.4841  44.4940  44.9385
    46.4889  47.9448  47.9552  49.4695  51.1137  52.1969  52.1988  52.3148
    52.3242  52.3617  52.3754  52.5273  52.5286  52.5778  52.5807  52.7712
    52.8516  52.8535  53.6332  53.6423  53.7515  53.7525  53.8345  53.9448
    53.9480  54.1348

          k =-0.1000 0.1000 0.5000 (  4804 PWs)   bands (ev):

    31.5349  31.5446  36.6623  36.6722  36.6733  36.6813  38.5224  38.5307
    38.5317  38.5386  39.9303  39.9428  40.7337  40.7406  42.3816  42.3866
    42.3983  42.4049  42.4579  42.4617  42.4628  42.4664  43.7774  43.7789
    43.7885  43.7904  43.8849  43.8893  44.4829  44.4849  44.4922  44.4946
    48.6366  48.6546  49.9873  50.0013  50.0117  50.0270  51.5083  51.5235
    52.2546  52.2575  52.2679  52.2714  52.3204  52.3231  52.3240  52.3278
    52.8401  52.8463  52.8567  52.8608  54.0168  54.0435  54.0764  54.0772
    54.0794  54.0806

          k =-0.5000-0.1000 0.1000 (  4804 PWs)   bands (ev):

    31.5344  31.5451  36.6628  36.6694  36.6729  36.6839  38.5229  38.5283
    38.5315  38.5406  39.9297  39.9435  40.7334  40.7409  42.3806  42.3947
    42.3971  42.3988  42.4591  42.4609  42.4618  42.4669  43.7772  43.7782
    43.7893  43.7911  43.8844  43.8890  44.4822  44.4847  44.4936  44.4945
    48.6356  48.6555  49.9844  50.0079  50.0130  50.0217  51.5076  51.5242
    52.2533  52.2568  52.2698  52.2724  52.3197  52.3231  52.3256  52.3265
    52.8394  52.8441  52.8563  52.8639  54.0158  54.0461  54.0767  54.0770
    54.0782  54.0800

          k = 0.5000-0.1000-0.1000 (  4804 PWs)   bands (ev):

    31.5344  31.5451  36.6619  36.6692  36.6728  36.6852  38.5220  38.5278
    38.5311  38.5423  39.9297  39.9435  40.7334  40.7410  42.3826  42.3877
    42.3969  42.4032  42.4585  42.4618  42.4631  42.4661  43.7755  43.7787
    43.7874  43.7938  43.8850  43.8890  44.4814  44.4854  44.4931  44.4950
    48.6355  48.6555  49.9878  50.0019  50.0109  50.0268  51.5074  51.5240
    52.2488  52.2590  52.2666  52.2775  52.3199  52.3231  52.3248  52.3277
    52.8280  52.8496  52.8548  52.8716  54.0158  54.0462  54.0762  54.0771
    54.0789  54.0795

          k =-0.1000-0.5000 0.1000 (  4804 PWs)   bands (ev):

    31.5383  31.5412  36.6611  36.6685  36.6784  36.6810  38.5208  38.5279
    38.5359  38.5388  39.9346  39.9385  40.7362  40.7382  42.3909  42.3919
    42.3936  42.3946  42.4614  42.4616  42.4628  42.4631  43.7781  43.7837
    43.7852  43.7883  43.8861  43.8880  44.4851  44.4870  44.4892  44.4934
    48.6427  48.6482  50.0028  50.0044  50.0095  50.0109  51.5136  51.5182
    52.2537  52.2617  52.2646  52.2714  52.3226  52.3234  52.3244  52.3249
    52.8353  52.8475  52.8526  52.8681  54.0263  54.0348  54.0775  54.0778
    54.0786  54.0791

          k =-0.1000 0.5000-0.1000 (  4804 PWs)   bands (ev):

    31.5383  31.5412  36.6619  36.6665  36.6792  36.6814  38.5222  38.5259
    38.5368  38.5386  39.9346  39.9385  40.7361  40.7381  42.3843  42.3932
    42.3942  42.3998  42.4604  42.4613  42.4618  42.4649  43.7798  43.7834
    43.7849  43.7873  43.8858  43.8880  44.4859  44.4878  44.4892  44.4920
    48.6429  48.6483  49.9938  50.0088  50.0095  50.0149  51.5137  51.5183
    52.2591  52.2621  52.2637  52.2672  52.3212  52.3240  52.3243  52.3249
    52.8434  52.8492  52.8538  52.8577  54.0263  54.0350  54.0769  54.0777
    54.0786  54.0796

          k =-0.1000-0.3000 0.3000 (  4792 PWs)   bands (ev):

    30.9353  33.7819  33.7912  36.1717  36.3275  38.0565  38.4464  38.4552
    39.2435  39.2477  40.2208  40.2268  40.3617  41.1843  41.1893  41.4369
    41.4439  42.0208  42.0756  43.1771  43.1815  43.3367  43.3428  43.9720
    43.9746  44.3083  44.3110  44.5341  44.5453  44.5471  45.0584  45.0663
    46.8570  46.8653  49.6505  50.2248  50.2283  51.1705  51.1726  51.2127
    51.2208  51.2463  52.0559  52.0885  52.0943  52.1210  52.6823  52.6833
    52.7435  52.7495  53.7618  53.7685  53.9913  53.9918  54.2529  54.3141
    54.3246  54.5345

          k =-0.1000 0.3000-0.3000 (  4792 PWs)   bands (ev):

    30.9353  33.7819  33.7912  36.1717  36.3274  38.0567  38.4464  38.4550
    39.2435  39.2477  40.2208  40.2273  40.3612  41.1842  41.1893  41.4369
    41.4440  42.0208  42.0757  43.1772  43.1815  43.3367  43.3428  43.9720
    43.9746  44.3083  44.3110  44.5334  44.5455  44.5477  45.0583  45.0663
    46.8570  46.8653  49.6504  50.2251  50.2284  51.1710  51.1723  51.2126
    51.2210  51.2457  52.0558  52.0887  52.0943  52.1209  52.6822  52.6832
    52.7436  52.7493  53.7622  53.7688  53.9914  53.9918  54.2529  54.3138
    54.3242  54.5347

          k = 0.1000-0.3000-0.3000 (  4792 PWs)   bands (ev):

    30.9353  33.7798  33.7933  36.1716  36.3275  38.0564  38.4448  38.4569
    39.2427  39.2486  40.2186  40.2292  40.3616  41.1817  41.1916  41.4336
    41.4473  42.0208  42.0755  43.1761  43.1822  43.3355  43.3443  43.9714
    43.9751  44.3079  44.3115  44.5348  44.5442  44.5477  45.0546  45.0700
    46.8531  46.8693  49.6502  50.2241  50.2292  51.1710  51.1753  51.2046
    51.2174  51.2547  52.0566  52.0874  52.0946  52.1207  52.6822  52.6834
    52.7409  52.7521  53.7607  53.7701  53.9913  53.9918  54.2530  54.3085
    54.3300  54.5340

          k = 0.3000 0.1000-0.3000 (  4792 PWs)   bands (ev):

    30.9353  33.7795  33.7936  36.1716  36.3275  38.0569  38.4442  38.4569
    39.2424  39.2487  40.2192  40.2299  40.3604  41.1864  41.1871  41.4396
    41.4410  42.0208  42.0759  43.1761  43.1824  43.3353  43.3444  43.9713
    43.9753  44.3077  44.3118  44.5337  44.5458  44.5470  45.0616  45.0628
    46.8607  46.8618  49.6500  50.2242  50.2292  51.1717  51.1736  51.2076
    51.2200  51.2499  52.0550  52.0884  52.0950  52.1214  52.6823  52.6834
    52.7459  52.7466  53.7602  53.7704  53.9917  53.9920  54.2530  54.3182
    54.3196  54.5339

          k =-0.3000-0.1000-0.3000 (  4792 PWs)   bands (ev):

    30.9353  33.7784  33.7947  36.1716  36.3275  38.0567  38.4430  38.4581
    39.2421  39.2492  40.2184  40.2301  40.3610  41.1841  41.1895  41.4366
    41.4441  42.0208  42.0759  43.1755  43.1829  43.3344  43.3451  43.9710
    43.9756  44.3075  44.3120  44.5345  44.5452  44.5469  45.0581  45.0665
    46.8568  46.8655  49.6505  50.2233  50.2297  51.1712  51.1723  51.2151
    51.2201  51.2440  52.0559  52.0868  52.0961  52.1215  52.6820  52.6832
    52.7436  52.7493  53.7594  53.7712  53.9910  53.9918  54.2530  54.3133
    54.3250  54.5338

          k = 0.3000-0.1000 0.3000 (  4792 PWs)   bands (ev):

    30.9353  33.7784  33.7947  36.1715  36.3276  38.0569  38.4431  38.4580
    39.2419  39.2493  40.2186  40.2304  40.3606  41.1840  41.1895  41.4368
    41.4438  42.0208  42.0759  43.1756  43.1830  43.3344  43.3451  43.9710
    43.9756  44.3076  44.3119  44.5343  44.5452  44.5470  45.0581  45.0664
    46.8567  46.8655  49.6504  50.2234  50.2298  51.1720  51.1730  51.2145
    51.2193  51.2440  52.0549  52.0876  52.0961  52.1217  52.6820  52.6830
    52.7436  52.7495  53.7593  53.7711  53.9915  53.9919  54.2530  54.3132
    54.3251  54.5336

          k =-0.3000 0.1000 0.3000 (  4792 PWs)   bands (ev):

    30.9353  33.7795  33.7936  36.1717  36.3274  38.0566  38.4444  38.4569
    39.2426  39.2488  40.2184  40.2299  40.3609  41.1864  41.1871  41.4399
    41.4409  42.0208  42.0757  43.1760  43.1824  43.3352  43.3445  43.9712
    43.9753  44.3076  44.3117  44.5344  44.5459  44.5463  45.0619  45.0628
    46.8606  46.8618  49.6503  50.2240  50.2292  51.1723  51.1734  51.2057
    51.2199  51.2514  52.0540  52.0888  52.0954  52.1217  52.6822  52.6835
    52.7460  52.7468  53.7602  53.7706  53.9915  53.9919  54.2529  54.3181
    54.3200  54.5341

          k = 0.3000-0.3000 0.1000 (  4792 PWs)   bands (ev):

    30.9353  33.7823  33.7907  36.1717  36.3274  38.0570  38.4468  38.4543
    39.2437  39.2475  40.2217  40.2280  40.3599  41.1810  41.1925  41.4322
    41.4484  42.0207  42.0759  43.1775  43.1811  43.3371  43.3425  43.9721
    43.9744  44.3087  44.3108  44.5335  44.5445  44.5485  45.0532  45.0713
    46.8519  46.8706  49.6500  50.2254  50.2282  51.1699  51.1742  51.2090
    51.2199  51.2495  52.0565  52.0897  52.0934  52.1206  52.6821  52.6833
    52.7401  52.7528  53.7624  53.7681  53.9915  53.9917  54.2530  54.3064
    54.3316  54.5346

          k =-0.3000-0.3000-0.1000 (  4792 PWs)   bands (ev):

    30.9353  33.7842  33.7888  36.1717  36.3274  38.0568  38.4486  38.4526
    39.2446  39.2466  40.2224  40.2265  40.3605  41.1838  41.1897  41.4363
    41.4444  42.0207  42.0758  43.1782  43.1803  43.3383  43.3413  43.9726
    43.9738  44.3091  44.3104  44.5343  44.5450  44.5471  45.0578  45.0668
    46.8565  46.8658  49.6504  50.2258  50.2276  51.1713  51.1729  51.2098
    51.2194  51.2491  52.0571  52.0895  52.0925  52.1207  52.6825  52.6828
    52.7432  52.7498  53.7637  53.7671  53.9910  53.9919  54.2531  54.3130
    54.3250  54.5354

          k = 0.3000 0.3000-0.1000 (  4792 PWs)   bands (ev):

    30.9353  33.7842  33.7888  36.1716  36.3275  38.0569  38.4485  38.4526
    39.2445  39.2467  40.2229  40.2264  40.3601  41.1838  41.1897  41.4365
    41.4443  42.0207  42.0758  43.1784  43.1803  43.3383  43.3413  43.9726
    43.9739  44.3090  44.3104  44.5336  44.5455  44.5475  45.0577  45.0667
    46.8565  46.8659  49.6502  50.2258  50.2275  51.1723  51.1737  51.2107
    51.2179  51.2485  52.0559  52.0895  52.0932  52.1209  52.6826  52.6828
    52.7431  52.7498  53.7638  53.7666  53.9914  53.9917  54.2532  54.3130
    54.3251  54.5352

          k =-0.3000 0.3000 0.1000 (  4792 PWs)   bands (ev):

    30.9353  33.7823  33.7907  36.1717  36.3274  38.0567  38.4469  38.4542
    39.2440  39.2475  40.2206  40.2280  40.3606  41.1811  41.1926  41.4326
    41.4483  42.0208  42.0756  43.1774  43.1811  43.3372  43.3425  43.9720
    43.9744  44.3085  44.3108  44.5342  44.5443  44.5481  45.0534  45.0713
    46.8518  46.8706  49.6503  50.2253  50.2279  51.1707  51.1744  51.2056
    51.2203  51.2516  52.0552  52.0893  52.0946  52.1207  52.6822  52.6833
    52.7402  52.7529  53.7625  53.7685  53.9914  53.9916  54.2532  54.3065
    54.3315  54.5349

          k =-0.1000 0.3000 0.5000 (  4754 PWs)   bands (ev):

    32.1415  32.1512  34.8540  34.8635  37.1255  37.1343  38.9741  38.9813
    39.2349  39.2431  40.2025  40.2079  40.4800  40.4925  40.9938  41.0004
    42.1918  42.1933  42.6597  42.6720  42.9846  42.9887  43.9869  43.9901
    44.2171  44.2279  44.4782  44.4848  44.7807  44.7881  45.0500  45.0503
    47.9014  47.9183  48.8928  48.9100  50.2007  50.2130  50.7097  50.7224
    51.5936  51.6083  51.7658  51.7789  52.0414  52.0479  52.7135  52.7176
    53.2496  53.2633  53.2750  53.2904  53.8495  53.8747  54.1263  54.1280
    54.3183  54.3261

          k = 0.3000 0.1000 0.5000 (  4754 PWs)   bands (ev):

    32.1415  32.1511  34.8540  34.8635  37.1255  37.1342  38.9743  38.9819
    39.2347  39.2423  40.2024  40.2079  40.4801  40.4925  40.9938  41.0007
    42.1918  42.1935  42.6596  42.6719  42.9846  42.9887  43.9868  43.9899
    44.2171  44.2278  44.4782  44.4848  44.7808  44.7881  45.0500  45.0503
    47.9013  47.9183  48.8927  48.9100  50.2009  50.2130  50.7097  50.7224
    51.5934  51.6081  51.7660  51.7792  52.0415  52.0481  52.7133  52.7176
    53.2453  53.2627  53.2793  53.2909  53.8496  53.8748  54.1263  54.1280
    54.3183  54.3262

          k = 0.3000-0.1000-0.5000 (  4754 PWs)   bands (ev):

    32.1415  32.1511  34.8540  34.8635  37.1255  37.1342  38.9744  38.9816
    39.2346  39.2428  40.2025  40.2078  40.4800  40.4925  40.9938  41.0007
    42.1918  42.1934  42.6596  42.6720  42.9846  42.9887  43.9869  43.9900
    44.2171  44.2278  44.4782  44.4847  44.7807  44.7882  45.0500  45.0503
    47.9013  47.9183  48.8928  48.9099  50.2008  50.2130  50.7097  50.7224
    51.5940  51.6084  51.7655  51.7790  52.0413  52.0480  52.7136  52.7176
    53.2441  53.2635  53.2773  53.2932  53.8494  53.8747  54.1265  54.1281
    54.3182  54.3261

          k =-0.5000-0.3000 0.1000 (  4754 PWs)   bands (ev):

    32.1410  32.1517  34.8535  34.8640  37.1250  37.1348  38.9740  38.9824
    39.2341  39.2429  40.2018  40.2079  40.4797  40.4935  40.9936  41.0008
    42.1917  42.1933  42.6591  42.6728  42.9843  42.9888  43.9865  43.9901
    44.2168  44.2285  44.4778  44.4851  44.7803  44.7884  45.0500  45.0503
    47.9004  47.9193  48.8918  48.9109  50.2000  50.2137  50.7090  50.7232
    51.5933  51.6092  51.7651  51.7793  52.0409  52.0481  52.7132  52.7177
    53.2503  53.2645  53.2732  53.2906  53.8483  53.8764  54.1261  54.1280
    54.3177  54.3264

          k = 0.5000-0.3000-0.1000 (  4754 PWs)   bands (ev):

    32.1410  32.1517  34.8535  34.8640  37.1251  37.1349  38.9733  38.9823
    39.2348  39.2429  40.2020  40.2082  40.4796  40.4934  40.9935  41.0006
    42.1917  42.1933  42.6592  42.6727  42.9844  42.9888  43.9864  43.9901
    44.2168  44.2286  44.4778  44.4851  44.7803  44.7885  45.0499  45.0503
    47.9004  47.9193  48.8919  48.9110  50.2000  50.2137  50.7087  50.7232
    51.5933  51.6088  51.7652  51.7800  52.0407  52.0484  52.7133  52.7181
    53.2459  53.2642  53.2757  53.2920  53.8482  53.8762  54.1261  54.1280
    54.3177  54.3263

          k =-0.1000-0.5000 0.3000 (  4754 PWs)   bands (ev):

    32.1449  32.1477  34.8573  34.8602  37.1286  37.1312  38.9762  38.9791
    39.2381  39.2401  40.2042  40.2059  40.4845  40.4884  40.9961  40.9980
    42.1922  42.1928  42.6639  42.6679  42.9860  42.9873  43.9878  43.9887
    44.2209  44.2244  44.4804  44.4825  44.7831  44.7856  45.0500  45.0503
    47.9072  47.9124  48.8988  48.9041  50.2050  50.2086  50.7141  50.7180
    51.5989  51.6035  51.7703  51.7741  52.0436  52.0456  52.7149  52.7162
    53.2526  53.2616  53.2746  53.2886  53.8585  53.8665  54.1269  54.1275
    54.3211  54.3233

          k =-0.1000 0.5000-0.3000 (  4754 PWs)   bands (ev):

    32.1449  32.1477  34.8573  34.8601  37.1286  37.1312  38.9770  38.9792
    39.2375  39.2399  40.2043  40.2058  40.4845  40.4883  40.9962  40.9981
    42.1923  42.1928  42.6639  42.6679  42.9860  42.9873  43.9878  43.9888
    44.2210  44.2243  44.4804  44.4825  44.7831  44.7856  45.0500  45.0502
    47.9073  47.9124  48.8988  48.9041  50.2050  50.2087  50.7141  50.7179
    51.5982  51.6035  51.7710  51.7739  52.0437  52.0456  52.7148  52.7162
    53.2544  53.2628  53.2735  53.2878  53.8584  53.8664  54.1269  54.1275
    54.3210  54.3233

          k = 0.3000-0.5000 0.1000 (  4754 PWs)   bands (ev):

    32.1449  32.1477  34.8573  34.8601  37.1287  37.1312  38.9768  38.9793
    39.2376  39.2398  40.2042  40.2059  40.4843  40.4882  40.9962  40.9981
    42.1924  42.1929  42.6639  42.6678  42.9859  42.9873  43.9880  43.9889
    44.2207  44.2242  44.4804  44.4825  44.7833  44.7857  45.0499  45.0501
    47.9074  47.9124  48.8987  48.9040  50.2051  50.2086  50.7141  50.7180
    51.5988  51.6036  51.7703  51.7742  52.0436  52.0454  52.7149  52.7162
    53.2525  53.2620  53.2765  53.2873  53.8583  53.8664  54.1269  54.1274
    54.3209  54.3231

          k = 0.3000 0.5000-0.1000 (  4754 PWs)   bands (ev):

    32.1449  32.1477  34.8573  34.8602  37.1287  37.1312  38.9770  38.9791
    39.2372  39.2399  40.2046  40.2060  40.4843  40.4883  40.9960  40.9980
    42.1924  42.1929  42.6639  42.6678  42.9859  42.9873  43.9879  43.9888
    44.2207  44.2242  44.4803  44.4826  44.7832  44.7856  45.0500  45.0502
    47.9072  47.9123  48.8990  48.9041  50.2050  50.2087  50.7141  50.7179
    51.5983  51.6039  51.7708  51.7739  52.0436  52.0456  52.7148  52.7162
    53.2496  53.2580  53.2800  53.2901  53.8583  53.8665  54.1269  54.1275
    54.3210  54.3234

          k =-0.5000 0.1000 0.3000 (  4754 PWs)   bands (ev):

    32.1409  32.1517  34.8535  34.8640  37.1250  37.1347  38.9732  38.9817
    39.2347  39.2437  40.2023  40.2081  40.4795  40.4933  40.9933  41.0007
    42.1917  42.1933  42.6592  42.6727  42.9843  42.9888  43.9866  43.9901
    44.2166  44.2286  44.4778  44.4851  44.7803  44.7885  45.0499  45.0503
    47.9004  47.9192  48.8919  48.9109  50.2002  50.2137  50.7089  50.7231
    51.5930  51.6090  51.7650  51.7795  52.0410  52.0490  52.7133  52.7179
    53.2429  53.2614  53.2767  53.2967  53.8482  53.8762  54.1262  54.1279
    54.3177  54.3265

          k = 0.5000-0.1000 0.3000 (  4754 PWs)   bands (ev):

    32.1409  32.1517  34.8535  34.8640  37.1250  37.1347  38.9736  38.9823
    39.2346  39.2430  40.2019  40.2080  40.4795  40.4934  40.9935  41.0008
    42.1917  42.1933  42.6592  42.6727  42.9843  42.9889  43.9867  43.9900
    44.2167  44.2285  44.4778  44.4851  44.7803  44.7884  45.0500  45.0502
    47.9004  47.9192  48.8918  48.9108  50.2001  50.2137  50.7090  50.7232
    51.5931  51.6092  51.7650  51.7795  52.0409  52.0484  52.7133  52.7177
    53.2453  53.2638  53.2763  53.2931  53.8482  53.8764  54.1263  54.1281
    54.3177  54.3266

          k =-0.5000 0.1000 0.5000 (  4740 PWs)   bands (ev):

    33.2801  33.2886  33.2979  33.3085  37.9955  38.0029  38.0112  38.0204
    39.8165  39.8229  39.8298  39.8381  41.4521  41.4600  41.4605  41.4666
    41.4693  41.4766  41.4797  41.4873  43.8098  43.8148  43.8162  43.8207
    44.8966  44.8993  44.9019  44.9044  44.9068  44.9110  44.9139  44.9158
    48.7933  48.8086  48.8188  48.8219  48.8238  48.8373  48.8442  48.8461
    51.7321  51.7433  51.7486  51.7580  53.3635  53.3753  53.3818  53.3908
    53.5691  53.5725  53.5813  53.5834  53.5933  53.5986  53.6070  53.6197
    54.1942  54.1989

          k =-0.5000 0.5000 0.1000 (  4740 PWs)   bands (ev):

    33.2870  33.2880  33.2975  33.3025  38.0016  38.0025  38.0109  38.0154
    39.8217  39.8224  39.8295  39.8333  41.4512  41.4533  41.4604  41.4685
    41.4708  41.4804  41.4823  41.4854  43.8116  43.8136  43.8175  43.8185
    44.8962  44.8973  44.9028  44.9063  44.9070  44.9117  44.9122  44.9159
    48.8062  48.8109  48.8176  48.8209  48.8234  48.8300  48.8397  48.8453
    51.7372  51.7416  51.7506  51.7524  53.3688  53.3744  53.3832  53.3860
    53.5634  53.5741  53.5831  53.5838  53.5919  53.6032  53.6051  53.6189
    54.1920  54.1932

          k =-0.3000-0.3000 0.3000 (  4788 PWs)   bands (ev):

    31.5557  34.3164  34.3263  34.3338  36.7626  36.7721  36.7793  38.8480
    39.7443  39.7489  39.7523  41.7440  41.7477  41.7518  41.8652  41.8744
    41.8783  41.8794  41.8931  41.9015  43.7908  43.7976  43.7994  43.8022
    43.8045  43.8094  43.8127  43.8192  43.8245  44.8386  44.8394  44.8403
    48.4451  48.4523  48.4598  49.7975  49.8028  49.8070  51.4786  51.4816
    51.4842  51.4890  51.4900  51.4945  52.3564  52.3623  52.3709  52.3769
    52.3800  52.3891  52.4252  52.4299  52.4347  53.1032  54.7237  54.7280
    54.7335  55.3110

          k =-0.3000 0.3000-0.3000 (  4788 PWs)   bands (ev):

    31.5557  34.3152  34.3255  34.3358  36.7614  36.7713  36.7812  38.8482
    39.7438  39.7485  39.7531  41.7411  41.7477  41.7548  41.8628  41.8724
    41.8812  41.8855  41.8921  41.8979  43.7932  43.7954  43.7984  43.8008
    43.8029  43.8051  43.8134  43.8218  43.8293  44.8384  44.8394  44.8404
    48.4395  48.4523  48.4653  49.7969  49.8026  49.8081  51.4761  51.4825
    51.4848  51.4890  51.4916  51.4931  52.3538  52.3652  52.3694  52.3767
    52.3807  52.3904  52.4234  52.4300  52.4364  53.1032  54.7227  54.7283
    54.7338  55.3090

          k = 0.3000-0.3000-0.3000 (  4788 PWs)   bands (ev):

    31.5557  34.3139  34.3281  34.3345  36.7601  36.7738  36.7800  38.8480
    39.7433  39.7497  39.7526  41.7400  41.7476  41.7557  41.8645  41.8731
    41.8804  41.8851  41.8909  41.8980  43.7885  43.7939  43.7975  43.8014
    43.8040  43.8083  43.8130  43.8222  43.8311  44.8387  44.8392  44.8406
    48.4382  48.4524  48.4668  49.7962  49.8038  49.8072  51.4759  51.4805
    51.4829  51.4888  51.4928  51.4971  52.3548  52.3619  52.3701  52.3716
    52.3830  52.3902  52.4230  52.4293  52.4406  53.1042  54.7229  54.7271
    54.7342  55.3092

          k =-0.3000 0.3000 0.5000 (  4758 PWs)   bands (ev):

    32.7236  32.7333  35.3419  35.3521  35.3535  35.3618  37.6249  37.6336
    40.6695  40.6745  40.6758  40.6798  41.0141  41.0266  42.6944  42.6980
    42.7096  42.7152  42.7179  42.7198  42.7274  42.7301  43.1414  43.1433
    43.1533  43.1555  44.4878  44.4918  44.4926  44.4977  44.9312  44.9396
    48.2786  48.2907  50.2951  50.3098  50.3164  50.3263  50.3367  50.3451
    50.3480  50.3644  51.5235  51.5292  51.5408  51.5445  51.9455  51.9520
    51.9567  51.9637  53.2595  53.2824  53.5684  53.5736  53.5783  53.5826
    55.2177  55.2290

          k =-0.5000-0.3000 0.3000 (  4758 PWs)   bands (ev):

    32.7230  32.7338  35.3424  35.3493  35.3531  35.3645  37.6244  37.6342
    40.6698  40.6729  40.6755  40.6808  41.0137  41.0276  42.6928  42.7058
    42.7077  42.7111  42.7178  42.7209  42.7246  42.7312  43.1411  43.1427
    43.1537  43.1567  44.4861  44.4914  44.4944  44.4976  44.9307  44.9400
    48.2779  48.2914  50.2934  50.3124  50.3187  50.3244  50.3361  50.3419
    50.3528  50.3621  51.5221  51.5273  51.5407  51.5478  51.9448  51.9564
    51.9575  51.9590  53.2584  53.2835  53.5675  53.5712  53.5799  53.5849
    55.2172  55.2294

          k = 0.5000-0.3000-0.3000 (  4758 PWs)   bands (ev):

    32.7230  32.7338  35.3414  35.3495  35.3529  35.3656  37.6243  37.6341
    40.6687  40.6724  40.6748  40.6834  41.0137  41.0276  42.6952  42.6991
    42.7087  42.7112  42.7194  42.7207  42.7284  42.7290  43.1401  43.1429
    43.1519  43.1592  44.4878  44.4908  44.4930  44.4983  44.9307  44.9400
    48.2779  48.2914  50.2962  50.3085  50.3180  50.3262  50.3336  50.3443
    50.3501  50.3651  51.5104  51.5329  51.5381  51.5564  51.9459  51.9532
    51.9555  51.9635  53.2583  53.2837  53.5631  53.5745  53.5777  53.5868
    55.2179  55.2293

          k =-0.3000-0.5000 0.3000 (  4758 PWs)   bands (ev):

    32.7270  32.7298  35.3410  35.3484  35.3588  35.3612  37.6279  37.6306
    40.6674  40.6734  40.6776  40.6810  41.0185  41.0225  42.7028  42.7036
    42.7059  42.7065  42.7221  42.7224  42.7240  42.7246  43.1424  43.1489
    43.1506  43.1522  44.4879  44.4905  44.4945  44.4970  44.9340  44.9367
    48.2828  48.2864  50.3077  50.3130  50.3151  50.3187  50.3370  50.3424
    50.3515  50.3565  51.5181  51.5309  51.5366  51.5520  51.9529  51.9534
    51.9553  51.9561  53.2674  53.2748  53.5683  53.5721  53.5787  53.5836
    55.2216  55.2248

          k =-0.3000 0.5000-0.3000 (  4758 PWs)   bands (ev):

    32.7270  32.7299  35.3416  35.3464  35.3595  35.3618  37.6280  37.6306
    40.6695  40.6718  40.6783  40.6796  41.0185  41.0225  42.6962  42.7050
    42.7062  42.7115  42.7178  42.7223  42.7238  42.7295  43.1443  43.1478
    43.1492  43.1525  44.4880  44.4895  44.4947  44.4975  44.9340  44.9368
    48.2828  48.2864  50.3019  50.3113  50.3151  50.3189  50.3428  50.3468
    50.3501  50.3547  51.5272  51.5332  51.5369  51.5408  51.9484  51.9550
    51.9558  51.9583  53.2675  53.2749  53.5719  53.5759  53.5766  53.5789
    55.2219  55.2249

          k =-0.5000 0.3000 0.5000 (  4772 PWs)   bands (ev):

    33.8204  33.8289  33.8381  33.8487  36.2873  36.2954  36.3041  36.3142
    41.5403  41.5445  41.5501  41.5557  41.9613  41.9695  41.9698  41.9758
    41.9787  41.9861  41.9893  41.9968  43.6120  43.6143  43.6146  43.6166
    43.9863  43.9933  43.9951  44.0000  44.0025  44.0092  44.0127  44.0188
    49.7253  49.7399  49.7495  49.7532  49.7543  49.7647  49.7748  49.7759
    51.0316  51.0420  51.0439  51.0535  51.8934  51.9058  51.9093  51.9200
    52.4038  52.4130  52.4170  52.4223  52.4279  52.4341  52.4426  52.4482
    56.0413  56.0488

          k =-0.5000 0.5000 0.3000 (  4772 PWs)   bands (ev):

    33.8273  33.8282  33.8377  33.8428  36.2938  36.2948  36.3038  36.3086
    41.5440  41.5444  41.5496  41.5524  41.9604  41.9623  41.9695  41.9779
    41.9804  41.9901  41.9917  41.9953  43.6128  43.6137  43.6152  43.6157
    43.9860  43.9865  43.9942  44.0019  44.0041  44.0130  44.0141  44.0182
    49.7323  49.7401  49.7474  49.7527  49.7547  49.7617  49.7700  49.7787
    51.0354  51.0390  51.0469  51.0497  51.8979  51.9028  51.9127  51.9152
    52.4027  52.4140  52.4170  52.4221  52.4273  52.4333  52.4411  52.4512
    56.0452  56.0485

     the Fermi energy is    52.7310 ev

!    total energy              =   -1130.04099802 Ry
     Harris-Foulkes estimate   =   -1130.04099823 Ry
     estimated scf accuracy    <       0.00000042 Ry

     total all-electron energy =    -15406.610020 Ry

     The total energy is the sum of the following terms:

     one-electron contribution =     469.19699642 Ry
     hartree contribution      =       1.74738904 Ry
     xc contribution           =    -138.29219996 Ry
     ewald contribution        =    -326.84024986 Ry
     one-center paw contrib.   =   -1135.85067068 Ry
     smearing contrib. (-TS)   =      -0.00226298 Ry

     convergence has been achieved in  25 iterations

     Forces acting on atoms (cartesian axes, Ry/au):

     atom    1 type  1   force =    -0.00289148   -0.00423485    0.00063514
     atom    2 type  1   force =    -0.00518493   -0.00141356    0.01282777
     atom    3 type  1   force =     0.01291965    0.00124469   -0.02104286
     atom    4 type  1   force =    -0.00678144    0.00277231   -0.02389925
     atom    5 type  1   force =    -0.01494266   -0.01331702    0.01694263
     atom    6 type  1   force =    -0.01077191    0.01113920   -0.00663090
     atom    7 type  1   force =    -0.01500392   -0.03169955    0.01299290
     atom    8 type  1   force =    -0.00627844    0.00957139   -0.00456864
     atom    9 type  1   force =     0.01911761    0.00489031   -0.00128241
     atom   10 type  1   force =    -0.00672796    0.00960919   -0.02774389
     atom   11 type  1   force =    -0.01012335   -0.01877197   -0.01309316
     atom   12 type  1   force =    -0.01572634   -0.00543995   -0.01022312
     atom   13 type  1   force =    -0.00488779   -0.01719785    0.00622439
     atom   14 type  1   force =    -0.00988932    0.01991422    0.01965382
     atom   15 type  1   force =    -0.01800759    0.01524043    0.01819151
     atom   16 type  1   force =     0.02461881    0.01204748    0.01480661
     atom   17 type  1   force =    -0.01781182   -0.00455651   -0.00129431
     atom   18 type  1   force =     0.01057796   -0.00373185    0.01502223
     atom   19 type  1   force =     0.02031033    0.01300800   -0.00407205
     atom   20 type  1   force =     0.00680819    0.02108903   -0.00934504
     atom   21 type  1   force =     0.00479984   -0.02276775    0.00995980
     atom   22 type  1   force =    -0.00218317    0.02352468    0.01208504
     atom   23 type  1   force =     0.01278063   -0.00905390   -0.01208043
     atom   24 type  1   force =     0.01442557    0.00506312    0.00415086
     atom   25 type  1   force =    -0.01130868   -0.00090711    0.00607205
     atom   26 type  1   force =     0.01183441   -0.00835292    0.00320494
     atom   27 type  1   force =    -0.00850779   -0.00735668    0.00342788
     atom   28 type  1   force =     0.00500908    0.00074691    0.00464317
     atom   29 type  1   force =     0.03882032   -0.01833542    0.00214723
     atom   30 type  1   force =    -0.00462062    0.00769193   -0.00063687
     atom   31 type  1   force =    -0.01017637   -0.00555566   -0.01718800
     atom   32 type  1   force =    -0.00019679    0.01513967   -0.00988705

     Total force =     0.128427     Total SCF correction =     0.001072


     Computing stress (Cartesian axis) and pressure

          total   stress  (Ry/bohr**3)                   (kbar)     P=59633.01
   0.40537514  -0.00000050   0.00000149      59632.73     -0.07      0.22
  -0.00000050   0.40537852  -0.00000177         -0.07  59633.23     -0.26
   0.00000149  -0.00000177   0.40537750          0.22     -0.26  59633.08


     Writing output data file fe_scf_fcc_2.save/
 
     init_run     :      2.59s CPU      2.76s WALL (       1 calls)
     electrons    :    113.24s CPU    117.85s WALL (       1 calls)
     forces       :      0.57s CPU      0.63s WALL (       1 calls)
     stress       :      0.98s CPU      1.00s WALL (       1 calls)

     Called by init_run:
     wfcinit      :      2.50s CPU      2.63s WALL (       1 calls)
     potinit      :      0.07s CPU      0.07s WALL (       1 calls)
     hinit0       :      0.02s CPU      0.05s WALL (       1 calls)

     Called by electrons:
     c_bands      :    101.75s CPU    105.48s WALL (      25 calls)
     sum_band     :      9.77s CPU     10.60s WALL (      25 calls)
     v_of_rho     :      0.05s CPU      0.06s WALL (      26 calls)
     newd         :      0.04s CPU      0.04s WALL (      26 calls)
     PAW_pot      :      1.64s CPU      1.65s WALL (      26 calls)
     mix_rho      :      0.03s CPU      0.03s WALL (      25 calls)

     Called by c_bands:
     init_us_2    :      1.09s CPU      1.12s WALL (    3339 calls)
     cegterg      :     97.91s CPU    101.56s WALL (    1575 calls)

     Called by sum_band:
     sum_band:bec :      0.17s CPU      0.18s WALL (    1575 calls)
     addusdens    :      0.03s CPU      0.03s WALL (      25 calls)

     Called by *egterg:
     h_psi        :     44.73s CPU     47.74s WALL (    6401 calls)
     s_psi        :      4.07s CPU      4.10s WALL (    6401 calls)
     g_psi        :      0.25s CPU      0.25s WALL (    4763 calls)
     cdiaghg      :     40.39s CPU     40.52s WALL (    6338 calls)

     Called by h_psi:
     h_psi:pot    :     44.50s CPU     47.51s WALL (    6401 calls)
     h_psi:calbec :      5.78s CPU      6.78s WALL (    6401 calls)
     vloc_psi     :     34.37s CPU     36.33s WALL (    6401 calls)
     add_vuspsi   :      4.32s CPU      4.37s WALL (    6401 calls)

     General routines
     calbec       :      8.13s CPU      9.62s WALL (    8291 calls)
     fft          :      0.05s CPU      0.10s WALL (     312 calls)
     ffts         :      0.01s CPU      0.01s WALL (      25 calls)
     fftw         :     38.63s CPU     40.84s WALL (  557546 calls)
 
     Parallel routines
     fft_scatt_xy :      2.94s CPU      3.10s WALL (  557883 calls)
     fft_scatt_yz :     23.48s CPU     24.93s WALL (  557883 calls)
 
     PWSCF        :  1m58.53s CPU     2m 3.82s WALL

 
   This run was terminated on:  23:52:22  22Oct2019            

=------------------------------------------------------------------------------=
   JOB DONE.
=------------------------------------------------------------------------------=
