
     Program PWSCF v.6.3 starts on 22Oct2019 at 23:44:30 

     This program is part of the open-source Quantum ESPRESSO suite
     for quantum simulation of materials; please cite
         "P. Giannozzi et al., J. Phys.:Condens. Matter 21 395502 (2009);
         "P. Giannozzi et al., J. Phys.:Condens. Matter 29 465901 (2017);
          URL http://www.quantum-espresso.org", 
     in publications or presentations arising from this work. More details at
     http://www.quantum-espresso.org/quote

     Parallel version (MPI & OpenMP), running on      20 processor cores
     Number of MPI processes:                20
     Threads/MPI process:                     1

     MPI processes distributed on     1 nodes
     R & G space division:  proc/nbgrp/npool/nimage =      20
     Reading input from /rds/homes/b/bxp912/jobs/20191022_test2/wd/runpwscf/file_10237.in
Warning: card &IONS ignored
Warning: card ION_DYNAMICS = 'BFGS', ignored
Warning: card / ignored
Warning: card &CELL ignored
Warning: card CELL_DYNAMICS = 'BFGS', ignored
Warning: card CELL_FACTOR = 2.0, ignored
Warning: card PRESS = 0.0, ignored
Warning: card / ignored

     Current dimensions of program PWSCF are:
     Max number of different atomic species (ntypx) = 10
     Max number of k-points (npk) =  40000
     Max angular momentum in pseudopotentials (lmaxx) =  3
     Message from routine read_upf::
     Pseudo file /rds/homes/b/bxp912/pp/Al.pbe-nl-kjpaw_psl.1.0.0.UPF has been successfully fixed on the fly.
To avoid this message in the future you can permanently fix 
 your pseudo files following instructions given in: 
https://gitlab.com/QEF/q-e/blob/master/upftools/how_to_fix_upf.md
               file Al.pbe-nl-kjpaw_psl.1.0.0.UPF: wavefunction(s)  3S 3P renormalized

     Subspace diagonalization in iterative solution of the eigenvalue problem:
     a serial algorithm will be used

 
     Parallelization info
     --------------------
     sticks:   dense  smooth     PW     G-vecs:    dense   smooth      PW
     Min          52      52     20                 1262     1262     300
     Max          53      53     21                 1265     1265     303
     Sum        1041    1041    401                25269    25269    6031
 


     bravais-lattice index     =            0
     lattice parameter (alat)  =       8.0800  a.u.
     unit-cell volume          =     527.5141 (a.u.)^3
     number of atoms/cell      =           32
     number of atomic types    =            1
     number of electrons       =        96.00
     number of Kohn-Sham states=           58
     kinetic-energy cutoff     =      66.0000  Ry
     charge density cutoff     =     200.0000  Ry
     convergence threshold     =      1.0E-06
     mixing beta               =       0.1000
     number of iterations used =           10  TF        mixing
     Exchange-correlation      = SLA PW PBX PBC ( 1  4  3  4 0 0)

     celldm(1)=   8.080000  celldm(2)=   0.000000  celldm(3)=   0.000000
     celldm(4)=   0.000000  celldm(5)=   0.000000  celldm(6)=   0.000000

     crystal axes: (cart. coord. in units of alat)
               a(1) = (   1.000000   0.000000   0.000000 )  
               a(2) = (   0.000000   1.000000   0.000000 )  
               a(3) = (   0.000000   0.000000   1.000000 )  

     reciprocal axes: (cart. coord. in units 2 pi/alat)
               b(1) = (  1.000000  0.000000  0.000000 )  
               b(2) = (  0.000000  1.000000  0.000000 )  
               b(3) = (  0.000000  0.000000  1.000000 )  


     PseudoPot. # 1 for Al read from file:
     /rds/homes/b/bxp912/pp/Al.pbe-nl-kjpaw_psl.1.0.0.UPF
     MD5 check sum: 339dbea23cf3ab9a065ad45c0f9085d7
     Pseudo is Projector augmented-wave + core cor, Zval =  3.0
     Generated using "atomic" code by A. Dal Corso v.5.1
     Shape of augmentation charge: PSQ
     Using radial grid of 1135 points,  4 beta functions with: 
                l(1) =   0
                l(2) =   0
                l(3) =   1
                l(4) =   1
     Q(r) pseudized with 0 coefficients 


     atomic species   valence    mass     pseudopotential
        Al             3.00    26.98200     Al( 1.00)

     No symmetry found



   Cartesian axes

     site n.     atom                  positions (alat units)
         1           Al  tau(   1) = (  -0.0000618   0.0000180   0.0001286  )
         2           Al  tau(   2) = (   0.2501504   0.2496409   0.0001329  )
         3           Al  tau(   3) = (   0.2498245   0.0000576   0.2505585  )
         4           Al  tau(   4) = (  -0.0000378   0.2504134   0.2503472  )
         5           Al  tau(   5) = (   0.0004835   0.0004765   0.4997751  )
         6           Al  tau(   6) = (   0.2502257   0.2496836   0.5000068  )
         7           Al  tau(   7) = (   0.2500525   0.0002908   0.7497884  )
         8           Al  tau(   8) = (   0.0001038   0.2502148   0.7503971  )
         9           Al  tau(   9) = (   0.0004488   0.5002037  -0.0000292  )
        10           Al  tau(  10) = (   0.2502638   0.7503330   0.0007661  )
        11           Al  tau(  11) = (   0.2503574   0.5002057   0.2504745  )
        12           Al  tau(  12) = (   0.0000725   0.7500861   0.2500479  )
        13           Al  tau(  13) = (   0.0002082   0.5002952   0.5001871  )
        14           Al  tau(  14) = (   0.2499320   0.7501195   0.4997555  )
        15           Al  tau(  15) = (   0.2506361   0.4996019   0.7494255  )
        16           Al  tau(  16) = (  -0.0006199   0.7494434   0.7499870  )
        17           Al  tau(  17) = (   0.5003850  -0.0001898  -0.0000732  )
        18           Al  tau(  18) = (   0.7498343   0.2501778  -0.0004407  )
        19           Al  tau(  19) = (   0.7493109  -0.0001812   0.2501458  )
        20           Al  tau(  20) = (   0.4999530   0.2499270   0.2496819  )
        21           Al  tau(  21) = (   0.4998509   0.0005536   0.4999482  )
        22           Al  tau(  22) = (   0.7501292   0.2494251   0.4999098  )
        23           Al  tau(  23) = (   0.7500676  -0.0001298   0.7500485  )
        24           Al  tau(  24) = (   0.5000215   0.2497853   0.7499902  )
        25           Al  tau(  25) = (   0.4997214   0.5002185  -0.0004144  )
        26           Al  tau(  26) = (   0.7495697   0.7501849   0.0005172  )
        27           Al  tau(  27) = (   0.7501903   0.4996254   0.2498983  )
        28           Al  tau(  28) = (   0.5001659   0.7496046   0.2503955  )
        29           Al  tau(  29) = (   0.4993878   0.5001941   0.5000764  )
        30           Al  tau(  30) = (   0.7503133   0.7499759   0.4997253  )
        31           Al  tau(  31) = (   0.7499001   0.5000179   0.7502634  )
        32           Al  tau(  32) = (   0.5000268   0.7499029   0.7498445  )

     number of k points=    14  Marzari-Vanderbilt smearing, width (Ry)=  0.0400
                       cart. coord. in units 2pi/alat
        k(    1) = (   0.1666667   0.1666667   0.1666667), wk =   0.1481481
        k(    2) = (   0.1666667   0.1666667  -0.5000000), wk =   0.1481481
        k(    3) = (   0.1666667  -0.5000000  -0.5000000), wk =   0.1481481
        k(    4) = (  -0.5000000  -0.5000000  -0.5000000), wk =   0.0740741
        k(    5) = (  -0.1666667  -0.1666667   0.1666667), wk =   0.1481481
        k(    6) = (  -0.1666667   0.1666667  -0.1666667), wk =   0.1481481
        k(    7) = (   0.1666667  -0.1666667  -0.1666667), wk =   0.1481481
        k(    8) = (  -0.1666667   0.1666667   0.5000000), wk =   0.1481481
        k(    9) = (  -0.5000000  -0.1666667   0.1666667), wk =   0.1481481
        k(   10) = (   0.5000000  -0.1666667  -0.1666667), wk =   0.1481481
        k(   11) = (  -0.1666667  -0.5000000   0.1666667), wk =   0.1481481
        k(   12) = (  -0.1666667   0.5000000  -0.1666667), wk =   0.1481481
        k(   13) = (  -0.5000000   0.1666667   0.5000000), wk =   0.1481481
        k(   14) = (  -0.5000000   0.5000000   0.1666667), wk =   0.1481481

     Dense  grid:    25269 G-vectors     FFT dimensions: (  40,  40,  40)

     Estimated max dynamical RAM per process >      10.55 MB

     Estimated total dynamical RAM >     210.93 MB

     Initial potential from superposition of free atoms

     starting charge   95.92671, renormalised to   96.00000
     Starting wfcs are  128 randomized atomic wfcs
     Checking if some PAW data can be deallocated... 

     total cpu time spent up to now is        1.3 secs

     Self-consistent Calculation

     iteration #  1     ecut=    66.00 Ry     beta= 0.10
     Davidson diagonalization with overlap
     ethr =  1.00E-02,  avg # of iterations =  5.5

     total cpu time spent up to now is        3.2 secs

     total energy              =   -1133.19930887 Ry
     Harris-Foulkes estimate   =   -1134.44447856 Ry
     estimated scf accuracy    <       1.40483591 Ry

     iteration #  2     ecut=    66.00 Ry     beta= 0.10
     Davidson diagonalization with overlap
     ethr =  1.46E-03,  avg # of iterations =  3.6

     total cpu time spent up to now is        4.2 secs

     total energy              =   -1129.55134889 Ry
     Harris-Foulkes estimate   =   -1133.29184332 Ry
     estimated scf accuracy    <       1.22054432 Ry

     iteration #  3     ecut=    66.00 Ry     beta= 0.10
     Davidson diagonalization with overlap
     ethr =  1.27E-03,  avg # of iterations =  3.6

     total cpu time spent up to now is        5.6 secs

     total energy              =   -1130.06532242 Ry
     Harris-Foulkes estimate   =   -1130.55481917 Ry
     estimated scf accuracy    <       0.20008980 Ry

     iteration #  4     ecut=    66.00 Ry     beta= 0.10
     Davidson diagonalization with overlap
     ethr =  2.08E-04,  avg # of iterations =  3.6

     total cpu time spent up to now is        6.7 secs

     total energy              =   -1129.95190776 Ry
     Harris-Foulkes estimate   =   -1130.09591139 Ry
     estimated scf accuracy    <       0.11936175 Ry

     iteration #  5     ecut=    66.00 Ry     beta= 0.10
     Davidson diagonalization with overlap
     ethr =  1.24E-04,  avg # of iterations =  2.4

     total cpu time spent up to now is        7.6 secs

     total energy              =   -1129.97869997 Ry
     Harris-Foulkes estimate   =   -1129.97048719 Ry
     estimated scf accuracy    <       0.00851562 Ry

     iteration #  6     ecut=    66.00 Ry     beta= 0.10
     Davidson diagonalization with overlap
     ethr =  8.87E-06,  avg # of iterations = 11.3

     total cpu time spent up to now is       10.6 secs

     total energy              =   -1130.00090868 Ry
     Harris-Foulkes estimate   =   -1129.99794371 Ry
     estimated scf accuracy    <       0.00751229 Ry

     iteration #  7     ecut=    66.00 Ry     beta= 0.10
     Davidson diagonalization with overlap
     ethr =  7.83E-06,  avg # of iterations =  1.0

     total cpu time spent up to now is       11.3 secs

     total energy              =   -1129.99372461 Ry
     Harris-Foulkes estimate   =   -1130.00097724 Ry
     estimated scf accuracy    <       0.01099517 Ry

     iteration #  8     ecut=    66.00 Ry     beta= 0.10
     Davidson diagonalization with overlap
     ethr =  7.83E-06,  avg # of iterations =  1.0

     total cpu time spent up to now is       12.0 secs

     total energy              =   -1129.99482311 Ry
     Harris-Foulkes estimate   =   -1129.99433635 Ry
     estimated scf accuracy    <       0.00108288 Ry

     iteration #  9     ecut=    66.00 Ry     beta= 0.10
     Davidson diagonalization with overlap
     ethr =  1.13E-06,  avg # of iterations =  6.5

     total cpu time spent up to now is       13.7 secs

     total energy              =   -1129.99514974 Ry
     Harris-Foulkes estimate   =   -1129.99508372 Ry
     estimated scf accuracy    <       0.00048894 Ry

     iteration # 10     ecut=    66.00 Ry     beta= 0.10
     Davidson diagonalization with overlap
     ethr =  5.09E-07,  avg # of iterations =  1.0

     total cpu time spent up to now is       14.5 secs

     total energy              =   -1129.99148910 Ry
     Harris-Foulkes estimate   =   -1129.99516358 Ry
     estimated scf accuracy    <       0.00021489 Ry

     iteration # 11     ecut=    66.00 Ry     beta= 0.10
     Davidson diagonalization with overlap
     ethr =  2.24E-07,  avg # of iterations =  4.2

     total cpu time spent up to now is       16.1 secs

     total energy              =   -1129.99141097 Ry
     Harris-Foulkes estimate   =   -1129.99165041 Ry
     estimated scf accuracy    <       0.00006427 Ry

     iteration # 12     ecut=    66.00 Ry     beta= 0.10
     Davidson diagonalization with overlap
     ethr =  6.69E-08,  avg # of iterations =  1.0

     total cpu time spent up to now is       16.8 secs

     total energy              =   -1129.99089958 Ry
     Harris-Foulkes estimate   =   -1129.99141484 Ry
     estimated scf accuracy    <       0.00011790 Ry

     iteration # 13     ecut=    66.00 Ry     beta= 0.10
     Davidson diagonalization with overlap
     ethr =  6.69E-08,  avg # of iterations =  4.4

     total cpu time spent up to now is       18.5 secs

     total energy              =   -1129.99093691 Ry
     Harris-Foulkes estimate   =   -1129.99095027 Ry
     estimated scf accuracy    <       0.00002215 Ry

     iteration # 14     ecut=    66.00 Ry     beta= 0.10
     Davidson diagonalization with overlap
     ethr =  2.31E-08,  avg # of iterations =  1.0

     total cpu time spent up to now is       19.2 secs

     total energy              =   -1129.99092466 Ry
     Harris-Foulkes estimate   =   -1129.99093757 Ry
     estimated scf accuracy    <       0.00000688 Ry

     iteration # 15     ecut=    66.00 Ry     beta= 0.10
     Davidson diagonalization with overlap
     ethr =  7.16E-09,  avg # of iterations =  4.0

     total cpu time spent up to now is       20.7 secs

     total energy              =   -1129.99092682 Ry
     Harris-Foulkes estimate   =   -1129.99092808 Ry
     estimated scf accuracy    <       0.00001067 Ry

     iteration # 16     ecut=    66.00 Ry     beta= 0.10
     Davidson diagonalization with overlap
     ethr =  7.16E-09,  avg # of iterations =  3.2

     total cpu time spent up to now is       21.7 secs

     End of self-consistent calculation

          k = 0.1667 0.1667 0.1667 (  4788 PWs)   bands (ev):

    30.0843  34.7264  34.7378  34.7470  37.8791  37.8873  37.8939  38.6152
    38.6259  38.6346  41.0761  41.0800  41.0836  41.4088  41.4145  41.4172
    41.4227  41.4313  41.4332  41.6517  43.6341  43.6393  43.6436  44.1714
    44.1748  44.1804  44.1835  44.1894  44.1947  44.3458  44.3577  44.3689
    46.8506  46.8629  46.8751  49.3974  52.2221  52.2250  52.2263  52.2850
    52.2902  52.2941  52.3884  52.3908  52.3931  52.3943  52.3979  52.4011
    53.9200  53.9270  53.9307  53.9354  53.9398  53.9468  53.9496  53.9556
    53.9572  53.9594

          k = 0.1667 0.1667-0.5000 (  4798 PWs)   bands (ev):

    31.8159  31.8262  36.1573  36.1639  36.1702  36.1732  39.2247  39.2292
    39.2334  39.2368  39.6826  39.6911  40.1855  40.1974  42.4794  42.4876
    42.4897  42.4948  42.5314  42.5329  42.5348  42.5383  43.5451  43.5471
    43.5559  43.5590  44.6346  44.6359  44.6417  44.6446  44.7678  44.7704
    47.9728  47.9908  50.0586  50.0715  50.0810  50.0881  51.3901  51.3978
    51.4039  51.4136  52.2948  52.2975  52.2998  52.3031  52.3311  52.3439
    52.3517  52.3632  52.6551  52.6679  53.9134  53.9392  54.3207  54.3215
    54.3224  54.3242

          k = 0.1667-0.5000-0.5000 (  4724 PWs)   bands (ev):

    33.4140  33.4201  33.4294  33.4341  37.4167  37.4224  37.4308  37.4351
    40.4246  40.4288  40.4355  40.4387  41.5688  41.5776  41.5885  41.5902
    41.5926  41.5957  41.6014  41.6091  43.7841  43.7853  43.7878  43.7895
    44.6585  44.6636  44.6731  44.6739  44.6748  44.6785  44.6813  44.6875
    49.0471  49.0549  49.0611  49.0696  49.0748  49.0786  49.0837  49.0935
    51.4770  51.4807  51.4877  51.4924  52.8332  52.8371  52.8445  52.8504
    53.2488  53.2523  53.2605  53.2658  53.2756  53.2800  53.2882  53.2939
    54.7064  54.7081

          k =-0.5000-0.5000-0.5000 (  4776 PWs)   bands (ev):

    34.8540  34.8649  34.8665  34.8742  34.8782  34.8806  34.8920  34.8950
    42.8629  42.8666  42.8719  42.8783  42.8841  42.8861  42.8877  42.8886
    42.8900  42.8916  42.8937  42.8954  42.8998  42.9040  42.9051  42.9090
    42.9101  42.9138  42.9151  42.9216  42.9245  42.9264  42.9286  42.9343
    50.9977  51.0099  51.0144  51.0198  51.0225  51.0271  51.0318  51.0357
    51.0369  51.0395  51.0408  51.0434  51.0473  51.0488  51.0519  51.0586
    51.0602  51.0677  51.0679  51.0742  51.0782  51.0830  51.0894  51.0911
    58.6656  58.6694

          k =-0.1667-0.1667 0.1667 (  4788 PWs)   bands (ev):

    30.0843  34.7283  34.7378  34.7451  37.8805  37.8873  37.8925  38.6169
    38.6260  38.6328  41.0776  41.0799  41.0823  41.4027  41.4131  41.4181
    41.4190  41.4329  41.4423  41.6514  43.6346  43.6393  43.6428  44.1715
    44.1765  44.1813  44.1835  44.1886  44.1935  44.3503  44.3572  44.3642
    46.8554  46.8630  46.8704  49.3974  52.2232  52.2242  52.2260  52.2868
    52.2895  52.2926  52.3896  52.3913  52.3919  52.3960  52.3979  52.3993
    53.9184  53.9236  53.9332  53.9410  53.9446  53.9462  53.9504  53.9530
    53.9571  53.9628

          k =-0.1667 0.1667-0.1667 (  4788 PWs)   bands (ev):

    30.0843  34.7272  34.7371  34.7469  37.8798  37.8868  37.8938  38.6158
    38.6252  38.6346  41.0759  41.0799  41.0840  41.4010  41.4107  41.4211
    41.4256  41.4326  41.4373  41.6511  43.6344  43.6389  43.6435  44.1722
    44.1769  44.1797  44.1844  44.1887  44.1925  44.3450  44.3574  44.3697
    46.8497  46.8628  46.8762  49.3975  52.2225  52.2242  52.2262  52.2854
    52.2909  52.2942  52.3886  52.3913  52.3941  52.3949  52.3968  52.3990
    53.9182  53.9271  53.9334  53.9387  53.9418  53.9448  53.9496  53.9521
    53.9580  53.9603

          k = 0.1667-0.1667-0.1667 (  4788 PWs)   bands (ev):

    30.0843  34.7259  34.7395  34.7458  37.8786  37.8886  37.8929  38.6150
    38.6276  38.6335  41.0753  41.0798  41.0845  41.4008  41.4134  41.4194
    41.4243  41.4311  41.4386  41.6518  43.6334  43.6401  43.6429  44.1728
    44.1753  44.1784  44.1840  44.1890  44.1948  44.3440  44.3576  44.3711
    46.8482  46.8630  46.8776  49.3973  52.2226  52.2245  52.2257  52.2846
    52.2894  52.2942  52.3882  52.3904  52.3921  52.3971  52.3981  52.4014
    53.9172  53.9274  53.9316  53.9367  53.9421  53.9461  53.9540  53.9559
    53.9605  53.9634

          k =-0.1667 0.1667 0.5000 (  4798 PWs)   bands (ev):

    31.8159  31.8262  36.1558  36.1657  36.1676  36.1756  39.2233  39.2306
    39.2319  39.2383  39.6826  39.6912  40.1855  40.1974  42.4764  42.4817
    42.4931  42.5003  42.5292  42.5325  42.5363  42.5393  43.5454  43.5471
    43.5565  43.5583  44.6338  44.6366  44.6413  44.6450  44.7678  44.7703
    47.9728  47.9908  50.0556  50.0695  50.0795  50.0947  51.3931  51.3964
    51.4053  51.4103  52.2937  52.2982  52.2993  52.3049  52.3368  52.3424
    52.3531  52.3569  52.6550  52.6683  53.9133  53.9392  54.3196  54.3207
    54.3238  54.3248

          k =-0.5000-0.1667 0.1667 (  4798 PWs)   bands (ev):

    31.8154  31.8267  36.1563  36.1630  36.1671  36.1783  39.2238  39.2285
    39.2320  39.2401  39.6821  39.6910  40.1850  40.1982  42.4753  42.4899
    42.4922  42.4937  42.5309  42.5323  42.5342  42.5402  43.5451  43.5464
    43.5568  43.5593  44.6323  44.6368  44.6425  44.6446  44.7679  44.7706
    47.9718  47.9917  50.0530  50.0761  50.0810  50.0890  51.3908  51.3965
    51.4074  51.4108  52.2930  52.2991  52.3004  52.3029  52.3349  52.3406
    52.3533  52.3607  52.6537  52.6699  53.9120  53.9408  54.3199  54.3206
    54.3226  54.3255

          k = 0.5000-0.1667-0.1667 (  4798 PWs)   bands (ev):

    31.8154  31.8267  36.1553  36.1635  36.1664  36.1795  39.2224  39.2283
    39.2311  39.2418  39.6827  39.6915  40.1850  40.1981  42.4774  42.4829
    42.4917  42.4980  42.5304  42.5330  42.5365  42.5388  43.5440  43.5468
    43.5551  43.5616  44.6324  44.6374  44.6421  44.6445  44.7679  44.7705
    47.9718  47.9917  50.0562  50.0702  50.0786  50.0944  51.3883  51.3973
    51.4032  51.4165  52.2938  52.2984  52.2995  52.3050  52.3234  52.3456
    52.3515  52.3676  52.6537  52.6699  53.9120  53.9407  54.3196  54.3209
    54.3236  54.3242

          k =-0.1667-0.5000 0.1667 (  4798 PWs)   bands (ev):

    31.8195  31.8226  36.1549  36.1625  36.1725  36.1748  39.2215  39.2287
    39.2356  39.2384  39.6856  39.6880  40.1897  40.1934  42.4859  42.4867
    42.4887  42.4896  42.5335  42.5338  42.5349  42.5354  43.5460  43.5520
    43.5535  43.5559  44.6362  44.6364  44.6399  44.6441  44.7689  44.7694
    47.9790  47.9845  50.0711  50.0725  50.0773  50.0788  51.3916  51.4000
    51.4041  51.4094  52.2975  52.2979  52.2999  52.3004  52.3320  52.3438
    52.3497  52.3636  52.6587  52.6644  53.9224  53.9306  54.3215  54.3219
    54.3224  54.3229

          k =-0.1667 0.5000-0.1667 (  4798 PWs)   bands (ev):

    31.8195  31.8226  36.1557  36.1605  36.1730  36.1754  39.2234  39.2270
    39.2363  39.2379  39.6854  39.6878  40.1896  40.1933  42.4792  42.4883
    42.4894  42.4949  42.5310  42.5335  42.5343  42.5383  43.5481  43.5513
    43.5526  43.5553  44.6355  44.6373  44.6403  44.6435  44.7687  44.7695
    47.9791  47.9846  50.0621  50.0769  50.0774  50.0828  51.3969  51.4000
    51.4015  51.4065  52.2952  52.2995  52.3002  52.3012  52.3400  52.3460
    52.3503  52.3534  52.6587  52.6643  53.9224  53.9306  54.3200  54.3217
    54.3224  54.3245

          k =-0.5000 0.1667 0.5000 (  4724 PWs)   bands (ev):

    33.4104  33.4194  33.4282  33.4396  37.4135  37.4217  37.4297  37.4400
    40.4220  40.4283  40.4344  40.4426  41.5737  41.5813  41.5825  41.5881
    41.5908  41.5982  41.6009  41.6088  43.7824  43.7861  43.7873  43.7907
    44.6617  44.6665  44.6683  44.6719  44.6745  44.6794  44.6825  44.6865
    49.0401  49.0550  49.0653  49.0682  49.0701  49.0824  49.0904  49.0919
    51.4726  51.4830  51.4867  51.4959  52.8270  52.8391  52.8441  52.8542
    53.2503  53.2554  53.2606  53.2650  53.2731  53.2782  53.2866  53.2965
    54.7042  54.7093

          k =-0.5000 0.5000 0.1667 (  4724 PWs)   bands (ev):

    33.4174  33.4184  33.4283  33.4335  37.4198  37.4208  37.4299  37.4346
    40.4269  40.4276  40.4345  40.4382  41.5726  41.5750  41.5817  41.5897
    41.5924  41.6021  41.6041  41.6067  43.7838  43.7854  43.7883  43.7889
    44.6613  44.6619  44.6682  44.6739  44.6752  44.6819  44.6827  44.6862
    49.0505  49.0561  49.0642  49.0678  49.0695  49.0772  49.0853  49.0927
    51.4769  51.4809  51.4891  51.4912  52.8320  52.8371  52.8466  52.8491
    53.2455  53.2563  53.2631  53.2649  53.2717  53.2814  53.2852  53.2972
    54.7072  54.7088

     the Fermi energy is    52.6803 ev

!    total energy              =   -1129.99092517 Ry
     Harris-Foulkes estimate   =   -1129.99092857 Ry
     estimated scf accuracy    <       0.00000091 Ry

     total all-electron energy =    -15406.559947 Ry

     The total energy is the sum of the following terms:

     one-electron contribution =     469.38748923 Ry
     hartree contribution      =       1.74535494 Ry
     xc contribution           =    -138.30685080 Ry
     ewald contribution        =    -326.84024986 Ry
     one-center paw contrib.   =   -1135.94944333 Ry
     smearing contrib. (-TS)   =      -0.02722536 Ry

     convergence has been achieved in  16 iterations

     Forces acting on atoms (cartesian axes, Ry/au):

     atom    1 type  1   force =    -0.00343203   -0.00493132    0.00125917
     atom    2 type  1   force =    -0.00474127   -0.00376541    0.01373890
     atom    3 type  1   force =     0.01386176    0.00165449   -0.02007384
     atom    4 type  1   force =    -0.00720770    0.00408423   -0.02429801
     atom    5 type  1   force =    -0.01390472   -0.01239743    0.01631360
     atom    6 type  1   force =    -0.01048128    0.00973701   -0.00749027
     atom    7 type  1   force =    -0.01591977   -0.03135135    0.01224178
     atom    8 type  1   force =    -0.00618464    0.01125562   -0.00358666
     atom    9 type  1   force =     0.02236958    0.00556164   -0.00177223
     atom   10 type  1   force =    -0.00529756    0.01191697   -0.02637945
     atom   11 type  1   force =    -0.00930089   -0.01880883   -0.01128678
     atom   12 type  1   force =    -0.01617791   -0.00617337   -0.01071817
     atom   13 type  1   force =    -0.00436221   -0.01777974    0.00695159
     atom   14 type  1   force =    -0.01098836    0.02130876    0.01858190
     atom   15 type  1   force =    -0.01590119    0.01490129    0.01617510
     atom   16 type  1   force =     0.02369290    0.01012444    0.01518389
     atom   17 type  1   force =    -0.01717498   -0.00588929   -0.00154700
     atom   18 type  1   force =     0.01004739   -0.00319575    0.01410155
     atom   19 type  1   force =     0.01859325    0.01439735   -0.00331576
     atom   20 type  1   force =     0.00715306    0.02237976   -0.01076194
     atom   21 type  1   force =     0.00396654   -0.02159903    0.01019009
     atom   22 type  1   force =    -0.00227917    0.02244309    0.01248461
     atom   23 type  1   force =     0.01382977   -0.00972679   -0.01283414
     atom   24 type  1   force =     0.01459765    0.00405968    0.00504630
     atom   25 type  1   force =    -0.01449289    0.00016254    0.00488342
     atom   26 type  1   force =     0.01014087   -0.00855298    0.00546136
     atom   27 type  1   force =    -0.00886392   -0.00915971    0.00326991
     atom   28 type  1   force =     0.00571135   -0.00087523    0.00706304
     atom   29 type  1   force =     0.03794869   -0.01929261    0.00301091
     atom   30 type  1   force =    -0.00343048    0.00833033   -0.00277093
     atom   31 type  1   force =    -0.01199455   -0.00484112   -0.01702152
     atom   32 type  1   force =     0.00022271    0.01602278   -0.01210041

     Total force =     0.128733     Total SCF correction =     0.000924


     Computing stress (Cartesian axis) and pressure

          total   stress  (Ry/bohr**3)                   (kbar)     P=59759.18
   0.40623319   0.00000019   0.00000046      59758.96      0.03      0.07
   0.00000019   0.40623555  -0.00000124          0.03  59759.30     -0.18
   0.00000046  -0.00000124   0.40623543          0.07     -0.18  59759.29


     Writing output data file fe_scf_fcc_2.save/
 
     init_run     :      0.69s CPU      0.76s WALL (       1 calls)
     electrons    :     19.65s CPU     20.46s WALL (       1 calls)
     forces       :      0.13s CPU      0.15s WALL (       1 calls)
     stress       :      0.23s CPU      0.23s WALL (       1 calls)

     Called by init_run:
     wfcinit      :      0.57s CPU      0.61s WALL (       1 calls)
     potinit      :      0.07s CPU      0.07s WALL (       1 calls)
     hinit0       :      0.04s CPU      0.06s WALL (       1 calls)

     Called by electrons:
     c_bands      :     17.11s CPU     17.78s WALL (      16 calls)
     sum_band     :      1.43s CPU      1.54s WALL (      16 calls)
     v_of_rho     :      0.04s CPU      0.04s WALL (      17 calls)
     newd         :      0.03s CPU      0.03s WALL (      17 calls)
     PAW_pot      :      1.07s CPU      1.08s WALL (      17 calls)
     mix_rho      :      0.02s CPU      0.02s WALL (      16 calls)

     Called by c_bands:
     init_us_2    :      0.14s CPU      0.14s WALL (     490 calls)
     cegterg      :     16.56s CPU     17.16s WALL (     224 calls)

     Called by sum_band:
     sum_band:bec :      0.02s CPU      0.03s WALL (     224 calls)
     addusdens    :      0.02s CPU      0.02s WALL (      16 calls)

     Called by *egterg:
     h_psi        :      7.11s CPU      7.61s WALL (    1042 calls)
     s_psi        :      0.65s CPU      0.65s WALL (    1042 calls)
     g_psi        :      0.04s CPU      0.04s WALL (     804 calls)
     cdiaghg      :      7.43s CPU      7.45s WALL (    1028 calls)

     Called by h_psi:
     h_psi:pot    :      7.07s CPU      7.57s WALL (    1042 calls)
     h_psi:calbec :      0.95s CPU      1.10s WALL (    1042 calls)
     vloc_psi     :      5.42s CPU      5.76s WALL (    1042 calls)
     add_vuspsi   :      0.69s CPU      0.70s WALL (    1042 calls)

     General routines
     calbec       :      1.32s CPU      1.55s WALL (    1336 calls)
     fft          :      0.07s CPU      0.09s WALL (     213 calls)
     ffts         :      0.00s CPU      0.00s WALL (      16 calls)
     fftw         :      6.01s CPU      6.38s WALL (   87362 calls)
 
     Parallel routines
     fft_scatt_xy :      0.46s CPU      0.49s WALL (   87591 calls)
     fft_scatt_yz :      3.71s CPU      3.97s WALL (   87591 calls)
 
     PWSCF        :    21.37s CPU        22.71s WALL

 
   This run was terminated on:  23:44:53  22Oct2019            

=------------------------------------------------------------------------------=
   JOB DONE.
=------------------------------------------------------------------------------=
