
     Program PWSCF v.6.3 starts on 22Oct2019 at 23:54:29 

     This program is part of the open-source Quantum ESPRESSO suite
     for quantum simulation of materials; please cite
         "P. Giannozzi et al., J. Phys.:Condens. Matter 21 395502 (2009);
         "P. Giannozzi et al., J. Phys.:Condens. Matter 29 465901 (2017);
          URL http://www.quantum-espresso.org", 
     in publications or presentations arising from this work. More details at
     http://www.quantum-espresso.org/quote

     Parallel version (MPI & OpenMP), running on      20 processor cores
     Number of MPI processes:                20
     Threads/MPI process:                     1

     MPI processes distributed on     1 nodes
     R & G space division:  proc/nbgrp/npool/nimage =      20
     Reading input from /rds/homes/b/bxp912/jobs/20191022_test2/wd/runpwscf/file_10244.in
Warning: card &IONS ignored
Warning: card ION_DYNAMICS = 'BFGS', ignored
Warning: card / ignored
Warning: card &CELL ignored
Warning: card CELL_DYNAMICS = 'BFGS', ignored
Warning: card CELL_FACTOR = 2.0, ignored
Warning: card PRESS = 0.0, ignored
Warning: card / ignored

     Current dimensions of program PWSCF are:
     Max number of different atomic species (ntypx) = 10
     Max number of k-points (npk) =  40000
     Max angular momentum in pseudopotentials (lmaxx) =  3
     Message from routine read_upf::
     Pseudo file /rds/homes/b/bxp912/pp/Al.pbe-nl-kjpaw_psl.1.0.0.UPF has been successfully fixed on the fly.
To avoid this message in the future you can permanently fix 
 your pseudo files following instructions given in: 
https://gitlab.com/QEF/q-e/blob/master/upftools/how_to_fix_upf.md
               file Al.pbe-nl-kjpaw_psl.1.0.0.UPF: wavefunction(s)  3S 3P renormalized

     Subspace diagonalization in iterative solution of the eigenvalue problem:
     a serial algorithm will be used

 
     Parallelization info
     --------------------
     sticks:   dense  smooth     PW     G-vecs:    dense   smooth      PW
     Min          52      52     20                 1262     1262     300
     Max          53      53     21                 1265     1265     303
     Sum        1041    1041    401                25269    25269    6031
 


     bravais-lattice index     =            0
     lattice parameter (alat)  =       8.0800  a.u.
     unit-cell volume          =     527.5141 (a.u.)^3
     number of atoms/cell      =           32
     number of atomic types    =            1
     number of electrons       =        96.00
     number of Kohn-Sham states=           58
     kinetic-energy cutoff     =      66.0000  Ry
     charge density cutoff     =     200.0000  Ry
     convergence threshold     =      1.0E-06
     mixing beta               =       0.1000
     number of iterations used =           10  TF        mixing
     Exchange-correlation      = SLA PW PBX PBC ( 1  4  3  4 0 0)

     celldm(1)=   8.080000  celldm(2)=   0.000000  celldm(3)=   0.000000
     celldm(4)=   0.000000  celldm(5)=   0.000000  celldm(6)=   0.000000

     crystal axes: (cart. coord. in units of alat)
               a(1) = (   1.000000   0.000000   0.000000 )  
               a(2) = (   0.000000   1.000000   0.000000 )  
               a(3) = (   0.000000   0.000000   1.000000 )  

     reciprocal axes: (cart. coord. in units 2 pi/alat)
               b(1) = (  1.000000  0.000000  0.000000 )  
               b(2) = (  0.000000  1.000000  0.000000 )  
               b(3) = (  0.000000  0.000000  1.000000 )  


     PseudoPot. # 1 for Al read from file:
     /rds/homes/b/bxp912/pp/Al.pbe-nl-kjpaw_psl.1.0.0.UPF
     MD5 check sum: 339dbea23cf3ab9a065ad45c0f9085d7
     Pseudo is Projector augmented-wave + core cor, Zval =  3.0
     Generated using "atomic" code by A. Dal Corso v.5.1
     Shape of augmentation charge: PSQ
     Using radial grid of 1135 points,  4 beta functions with: 
                l(1) =   0
                l(2) =   0
                l(3) =   1
                l(4) =   1
     Q(r) pseudized with 0 coefficients 


     atomic species   valence    mass     pseudopotential
        Al             3.00    26.98200     Al( 1.00)

     No symmetry found



   Cartesian axes

     site n.     atom                  positions (alat units)
         1           Al  tau(   1) = (  -0.0000618   0.0000180   0.0001286  )
         2           Al  tau(   2) = (   0.2501504   0.2496409   0.0001329  )
         3           Al  tau(   3) = (   0.2498245   0.0000576   0.2505585  )
         4           Al  tau(   4) = (  -0.0000378   0.2504134   0.2503472  )
         5           Al  tau(   5) = (   0.0004835   0.0004765   0.4997751  )
         6           Al  tau(   6) = (   0.2502257   0.2496836   0.5000068  )
         7           Al  tau(   7) = (   0.2500525   0.0002908   0.7497884  )
         8           Al  tau(   8) = (   0.0001038   0.2502148   0.7503971  )
         9           Al  tau(   9) = (   0.0004488   0.5002037  -0.0000292  )
        10           Al  tau(  10) = (   0.2502638   0.7503330   0.0007661  )
        11           Al  tau(  11) = (   0.2503574   0.5002057   0.2504745  )
        12           Al  tau(  12) = (   0.0000725   0.7500861   0.2500479  )
        13           Al  tau(  13) = (   0.0002082   0.5002952   0.5001871  )
        14           Al  tau(  14) = (   0.2499320   0.7501195   0.4997555  )
        15           Al  tau(  15) = (   0.2506361   0.4996019   0.7494255  )
        16           Al  tau(  16) = (  -0.0006199   0.7494434   0.7499870  )
        17           Al  tau(  17) = (   0.5003850  -0.0001898  -0.0000732  )
        18           Al  tau(  18) = (   0.7498343   0.2501778  -0.0004407  )
        19           Al  tau(  19) = (   0.7493109  -0.0001812   0.2501458  )
        20           Al  tau(  20) = (   0.4999530   0.2499270   0.2496819  )
        21           Al  tau(  21) = (   0.4998509   0.0005536   0.4999482  )
        22           Al  tau(  22) = (   0.7501292   0.2494251   0.4999098  )
        23           Al  tau(  23) = (   0.7500676  -0.0001298   0.7500485  )
        24           Al  tau(  24) = (   0.5000215   0.2497853   0.7499902  )
        25           Al  tau(  25) = (   0.4997214   0.5002185  -0.0004144  )
        26           Al  tau(  26) = (   0.7495697   0.7501849   0.0005172  )
        27           Al  tau(  27) = (   0.7501903   0.4996254   0.2498983  )
        28           Al  tau(  28) = (   0.5001659   0.7496046   0.2503955  )
        29           Al  tau(  29) = (   0.4993878   0.5001941   0.5000764  )
        30           Al  tau(  30) = (   0.7503133   0.7499759   0.4997253  )
        31           Al  tau(  31) = (   0.7499001   0.5000179   0.7502634  )
        32           Al  tau(  32) = (   0.5000268   0.7499029   0.7498445  )

     number of k points=    63  Marzari-Vanderbilt smearing, width (Ry)=  0.0200
                       cart. coord. in units 2pi/alat
        k(    1) = (   0.1000000   0.1000000   0.1000000), wk =   0.0320000
        k(    2) = (   0.1000000   0.1000000   0.3000000), wk =   0.0320000
        k(    3) = (   0.1000000   0.1000000  -0.5000000), wk =   0.0320000
        k(    4) = (   0.1000000   0.3000000   0.3000000), wk =   0.0320000
        k(    5) = (   0.1000000   0.3000000  -0.5000000), wk =   0.0320000
        k(    6) = (   0.1000000  -0.5000000  -0.5000000), wk =   0.0320000
        k(    7) = (   0.3000000   0.3000000   0.3000000), wk =   0.0320000
        k(    8) = (   0.3000000   0.3000000  -0.5000000), wk =   0.0320000
        k(    9) = (   0.3000000  -0.5000000  -0.5000000), wk =   0.0320000
        k(   10) = (  -0.5000000  -0.5000000  -0.5000000), wk =   0.0160000
        k(   11) = (  -0.1000000  -0.1000000   0.1000000), wk =   0.0320000
        k(   12) = (  -0.1000000   0.1000000  -0.1000000), wk =   0.0320000
        k(   13) = (   0.1000000  -0.1000000  -0.1000000), wk =   0.0320000
        k(   14) = (  -0.1000000  -0.1000000   0.3000000), wk =   0.0320000
        k(   15) = (  -0.1000000   0.1000000  -0.3000000), wk =   0.0320000
        k(   16) = (   0.1000000  -0.1000000  -0.3000000), wk =   0.0320000
        k(   17) = (   0.3000000  -0.1000000   0.1000000), wk =   0.0320000
        k(   18) = (  -0.3000000  -0.1000000  -0.1000000), wk =   0.0320000
        k(   19) = (   0.3000000   0.1000000  -0.1000000), wk =   0.0320000
        k(   20) = (  -0.3000000   0.1000000   0.1000000), wk =   0.0320000
        k(   21) = (  -0.1000000   0.3000000   0.1000000), wk =   0.0320000
        k(   22) = (  -0.1000000  -0.3000000  -0.1000000), wk =   0.0320000
        k(   23) = (   0.1000000   0.3000000  -0.1000000), wk =   0.0320000
        k(   24) = (   0.1000000  -0.3000000   0.1000000), wk =   0.0320000
        k(   25) = (  -0.1000000   0.1000000   0.5000000), wk =   0.0320000
        k(   26) = (  -0.5000000  -0.1000000   0.1000000), wk =   0.0320000
        k(   27) = (   0.5000000  -0.1000000  -0.1000000), wk =   0.0320000
        k(   28) = (  -0.1000000  -0.5000000   0.1000000), wk =   0.0320000
        k(   29) = (  -0.1000000   0.5000000  -0.1000000), wk =   0.0320000
        k(   30) = (  -0.1000000  -0.3000000   0.3000000), wk =   0.0320000
        k(   31) = (  -0.1000000   0.3000000  -0.3000000), wk =   0.0320000
        k(   32) = (   0.1000000  -0.3000000  -0.3000000), wk =   0.0320000
        k(   33) = (   0.3000000   0.1000000  -0.3000000), wk =   0.0320000
        k(   34) = (  -0.3000000  -0.1000000  -0.3000000), wk =   0.0320000
        k(   35) = (   0.3000000  -0.1000000   0.3000000), wk =   0.0320000
        k(   36) = (  -0.3000000   0.1000000   0.3000000), wk =   0.0320000
        k(   37) = (   0.3000000  -0.3000000   0.1000000), wk =   0.0320000
        k(   38) = (  -0.3000000  -0.3000000  -0.1000000), wk =   0.0320000
        k(   39) = (   0.3000000   0.3000000  -0.1000000), wk =   0.0320000
        k(   40) = (  -0.3000000   0.3000000   0.1000000), wk =   0.0320000
        k(   41) = (  -0.1000000   0.3000000   0.5000000), wk =   0.0320000
        k(   42) = (   0.3000000   0.1000000   0.5000000), wk =   0.0320000
        k(   43) = (   0.3000000  -0.1000000  -0.5000000), wk =   0.0320000
        k(   44) = (  -0.5000000  -0.3000000   0.1000000), wk =   0.0320000
        k(   45) = (   0.5000000  -0.3000000  -0.1000000), wk =   0.0320000
        k(   46) = (  -0.1000000  -0.5000000   0.3000000), wk =   0.0320000
        k(   47) = (  -0.1000000   0.5000000  -0.3000000), wk =   0.0320000
        k(   48) = (   0.3000000  -0.5000000   0.1000000), wk =   0.0320000
        k(   49) = (   0.3000000   0.5000000  -0.1000000), wk =   0.0320000
        k(   50) = (  -0.5000000   0.1000000   0.3000000), wk =   0.0320000
        k(   51) = (   0.5000000  -0.1000000   0.3000000), wk =   0.0320000
        k(   52) = (  -0.5000000   0.1000000   0.5000000), wk =   0.0320000
        k(   53) = (  -0.5000000   0.5000000   0.1000000), wk =   0.0320000
        k(   54) = (  -0.3000000  -0.3000000   0.3000000), wk =   0.0320000
        k(   55) = (  -0.3000000   0.3000000  -0.3000000), wk =   0.0320000
        k(   56) = (   0.3000000  -0.3000000  -0.3000000), wk =   0.0320000
        k(   57) = (  -0.3000000   0.3000000   0.5000000), wk =   0.0320000
        k(   58) = (  -0.5000000  -0.3000000   0.3000000), wk =   0.0320000
        k(   59) = (   0.5000000  -0.3000000  -0.3000000), wk =   0.0320000
        k(   60) = (  -0.3000000  -0.5000000   0.3000000), wk =   0.0320000
        k(   61) = (  -0.3000000   0.5000000  -0.3000000), wk =   0.0320000
        k(   62) = (  -0.5000000   0.3000000   0.5000000), wk =   0.0320000
        k(   63) = (  -0.5000000   0.5000000   0.3000000), wk =   0.0320000

     Dense  grid:    25269 G-vectors     FFT dimensions: (  40,  40,  40)

     Estimated max dynamical RAM per process >      20.87 MB

     Estimated total dynamical RAM >     417.35 MB

     Initial potential from superposition of free atoms

     starting charge   95.92671, renormalised to   96.00000
     Starting wfcs are  128 randomized atomic wfcs
     Checking if some PAW data can be deallocated... 

     total cpu time spent up to now is        3.3 secs

     Self-consistent Calculation

     iteration #  1     ecut=    66.00 Ry     beta= 0.10
     Davidson diagonalization with overlap
     ethr =  1.00E-02,  avg # of iterations =  5.0

     total cpu time spent up to now is       11.1 secs

     total energy              =   -1133.15671577 Ry
     Harris-Foulkes estimate   =   -1134.40444208 Ry
     estimated scf accuracy    <       1.41459128 Ry

     iteration #  2     ecut=    66.00 Ry     beta= 0.10
     Davidson diagonalization with overlap
     ethr =  1.47E-03,  avg # of iterations =  4.0

     total cpu time spent up to now is       15.8 secs

     total energy              =   -1129.69163924 Ry
     Harris-Foulkes estimate   =   -1133.29379608 Ry
     estimated scf accuracy    <       1.22862431 Ry

     iteration #  3     ecut=    66.00 Ry     beta= 0.10
     Davidson diagonalization with overlap
     ethr =  1.28E-03,  avg # of iterations =  3.9

     total cpu time spent up to now is       22.0 secs

     total energy              =   -1130.30418000 Ry
     Harris-Foulkes estimate   =   -1130.78560263 Ry
     estimated scf accuracy    <       0.22674414 Ry

     iteration #  4     ecut=    66.00 Ry     beta= 0.10
     Davidson diagonalization with overlap
     ethr =  2.36E-04,  avg # of iterations =  2.6

     total cpu time spent up to now is       25.9 secs

     total energy              =   -1129.99764994 Ry
     Harris-Foulkes estimate   =   -1130.32016247 Ry
     estimated scf accuracy    <       0.14441878 Ry

     iteration #  5     ecut=    66.00 Ry     beta= 0.10
     Davidson diagonalization with overlap
     ethr =  1.50E-04,  avg # of iterations =  3.7

     total cpu time spent up to now is       32.5 secs

     total energy              =   -1130.05269599 Ry
     Harris-Foulkes estimate   =   -1130.05002578 Ry
     estimated scf accuracy    <       0.00964762 Ry

     iteration #  6     ecut=    66.00 Ry     beta= 0.10
     Davidson diagonalization with overlap
     ethr =  1.00E-05,  avg # of iterations =  7.6

     total cpu time spent up to now is       40.1 secs

     total energy              =   -1130.07236665 Ry
     Harris-Foulkes estimate   =   -1130.06855953 Ry
     estimated scf accuracy    <       0.01170766 Ry

     iteration #  7     ecut=    66.00 Ry     beta= 0.10
     Davidson diagonalization with overlap
     ethr =  1.00E-05,  avg # of iterations =  1.0

     total cpu time spent up to now is       43.0 secs

     total energy              =   -1130.04180857 Ry
     Harris-Foulkes estimate   =   -1130.07248122 Ry
     estimated scf accuracy    <       0.01436327 Ry

     iteration #  8     ecut=    66.00 Ry     beta= 0.10
     Davidson diagonalization with overlap
     ethr =  1.00E-05,  avg # of iterations =  3.3

     total cpu time spent up to now is       47.3 secs

     total energy              =   -1130.04172906 Ry
     Harris-Foulkes estimate   =   -1130.04399460 Ry
     estimated scf accuracy    <       0.00040041 Ry

     iteration #  9     ecut=    66.00 Ry     beta= 0.10
     Davidson diagonalization with overlap
     c_bands:  4 eigenvalues not converged
     c_bands:  1 eigenvalues not converged
     c_bands:  1 eigenvalues not converged
     c_bands:  1 eigenvalues not converged
     c_bands:  1 eigenvalues not converged
     c_bands:  5 eigenvalues not converged
     c_bands:  4 eigenvalues not converged
     c_bands:  2 eigenvalues not converged
     c_bands:  2 eigenvalues not converged
     c_bands:  2 eigenvalues not converged
     c_bands:  2 eigenvalues not converged
     c_bands:  1 eigenvalues not converged
     ethr =  4.17E-07,  avg # of iterations = 10.3

     total cpu time spent up to now is       57.2 secs

     total energy              =   -1130.04244302 Ry
     Harris-Foulkes estimate   =   -1130.04241264 Ry
     estimated scf accuracy    <       0.00192025 Ry

     iteration # 10     ecut=    66.00 Ry     beta= 0.10
     Davidson diagonalization with overlap
     c_bands:  5 eigenvalues not converged
     ethr =  4.17E-07,  avg # of iterations =  2.2

     total cpu time spent up to now is       60.7 secs

     total energy              =   -1130.04164733 Ry
     Harris-Foulkes estimate   =   -1130.04244415 Ry
     estimated scf accuracy    <       0.00195221 Ry

     iteration # 11     ecut=    66.00 Ry     beta= 0.10
     Davidson diagonalization with overlap
     ethr =  4.17E-07,  avg # of iterations =  2.6

     total cpu time spent up to now is       64.5 secs

     total energy              =   -1130.04164075 Ry
     Harris-Foulkes estimate   =   -1130.04168909 Ry
     estimated scf accuracy    <       0.00160848 Ry

     iteration # 12     ecut=    66.00 Ry     beta= 0.10
     Davidson diagonalization with overlap
     ethr =  4.17E-07,  avg # of iterations =  1.0

     total cpu time spent up to now is       67.4 secs

     total energy              =   -1130.04161598 Ry
     Harris-Foulkes estimate   =   -1130.04165483 Ry
     estimated scf accuracy    <       0.00118549 Ry

     iteration # 13     ecut=    66.00 Ry     beta= 0.10
     Davidson diagonalization with overlap
     ethr =  4.17E-07,  avg # of iterations =  1.0

     total cpu time spent up to now is       70.4 secs

     total energy              =   -1130.04160934 Ry
     Harris-Foulkes estimate   =   -1130.04162122 Ry
     estimated scf accuracy    <       0.00094447 Ry

     iteration # 14     ecut=    66.00 Ry     beta= 0.10
     Davidson diagonalization with overlap
     ethr =  4.17E-07,  avg # of iterations =  1.0

     total cpu time spent up to now is       73.3 secs

     total energy              =   -1130.04138246 Ry
     Harris-Foulkes estimate   =   -1130.04161231 Ry
     estimated scf accuracy    <       0.00076642 Ry

     iteration # 15     ecut=    66.00 Ry     beta= 0.10
     Davidson diagonalization with overlap
     ethr =  4.17E-07,  avg # of iterations =  1.4

     total cpu time spent up to now is       76.4 secs

     total energy              =   -1130.04139379 Ry
     Harris-Foulkes estimate   =   -1130.04140626 Ry
     estimated scf accuracy    <       0.00033269 Ry

     iteration # 16     ecut=    66.00 Ry     beta= 0.10
     Davidson diagonalization with overlap
     ethr =  3.47E-07,  avg # of iterations =  1.0

     total cpu time spent up to now is       79.3 secs

     total energy              =   -1130.04137413 Ry
     Harris-Foulkes estimate   =   -1130.04140211 Ry
     estimated scf accuracy    <       0.00022945 Ry

     iteration # 17     ecut=    66.00 Ry     beta= 0.10
     Davidson diagonalization with overlap
     ethr =  2.39E-07,  avg # of iterations =  3.8

     total cpu time spent up to now is       83.7 secs

     total energy              =   -1130.04139566 Ry
     Harris-Foulkes estimate   =   -1130.04139543 Ry
     estimated scf accuracy    <       0.00001144 Ry

     iteration # 18     ecut=    66.00 Ry     beta= 0.10
     Davidson diagonalization with overlap
     ethr =  1.19E-08,  avg # of iterations =  6.7

     total cpu time spent up to now is       92.2 secs

     total energy              =   -1130.04140403 Ry
     Harris-Foulkes estimate   =   -1130.04140414 Ry
     estimated scf accuracy    <       0.00000453 Ry

     iteration # 19     ecut=    66.00 Ry     beta= 0.10
     Davidson diagonalization with overlap
     c_bands:  1 eigenvalues not converged
     ethr =  4.71E-09,  avg # of iterations =  3.8

     total cpu time spent up to now is       96.9 secs

     total energy              =   -1130.04140927 Ry
     Harris-Foulkes estimate   =   -1130.04140490 Ry
     estimated scf accuracy    <       0.00001694 Ry

     iteration # 20     ecut=    66.00 Ry     beta= 0.10
     Davidson diagonalization with overlap
     c_bands:  1 eigenvalues not converged
     ethr =  4.71E-09,  avg # of iterations =  5.0

     total cpu time spent up to now is      103.7 secs

     total energy              =   -1130.04140600 Ry
     Harris-Foulkes estimate   =   -1130.04141295 Ry
     estimated scf accuracy    <       0.00010905 Ry

     iteration # 21     ecut=    66.00 Ry     beta= 0.10
     Davidson diagonalization with overlap
     ethr =  4.71E-09,  avg # of iterations =  3.5

     total cpu time spent up to now is      108.3 secs

     total energy              =   -1130.04140957 Ry
     Harris-Foulkes estimate   =   -1130.04140726 Ry
     estimated scf accuracy    <       0.00004573 Ry

     iteration # 22     ecut=    66.00 Ry     beta= 0.10
     Davidson diagonalization with overlap
     ethr =  4.71E-09,  avg # of iterations =  1.0

     total cpu time spent up to now is      111.2 secs

     total energy              =   -1130.04140938 Ry
     Harris-Foulkes estimate   =   -1130.04140973 Ry
     estimated scf accuracy    <       0.00005178 Ry

     iteration # 23     ecut=    66.00 Ry     beta= 0.10
     Davidson diagonalization with overlap
     ethr =  4.71E-09,  avg # of iterations =  1.0

     total cpu time spent up to now is      114.2 secs

     total energy              =   -1130.04140996 Ry
     Harris-Foulkes estimate   =   -1130.04140944 Ry
     estimated scf accuracy    <       0.00005375 Ry

     iteration # 24     ecut=    66.00 Ry     beta= 0.10
     Davidson diagonalization with overlap
     ethr =  4.71E-09,  avg # of iterations =  1.0

     total cpu time spent up to now is      117.3 secs

     total energy              =   -1130.04140879 Ry
     Harris-Foulkes estimate   =   -1130.04141000 Ry
     estimated scf accuracy    <       0.00006019 Ry

     iteration # 25     ecut=    66.00 Ry     beta= 0.10
     Davidson diagonalization with overlap
     ethr =  4.71E-09,  avg # of iterations =  1.0

     total cpu time spent up to now is      120.2 secs

     total energy              =   -1130.04141019 Ry
     Harris-Foulkes estimate   =   -1130.04140885 Ry
     estimated scf accuracy    <       0.00005030 Ry

     iteration # 26     ecut=    66.00 Ry     beta= 0.10
     Davidson diagonalization with overlap
     ethr =  4.71E-09,  avg # of iterations =  1.0

     total cpu time spent up to now is      123.1 secs

     total energy              =   -1130.04141007 Ry
     Harris-Foulkes estimate   =   -1130.04141024 Ry
     estimated scf accuracy    <       0.00005835 Ry

     iteration # 27     ecut=    66.00 Ry     beta= 0.10
     Davidson diagonalization with overlap
     ethr =  4.71E-09,  avg # of iterations =  1.0

     total cpu time spent up to now is      126.1 secs

     total energy              =   -1130.04140921 Ry
     Harris-Foulkes estimate   =   -1130.04141008 Ry
     estimated scf accuracy    <       0.00005798 Ry

     iteration # 28     ecut=    66.00 Ry     beta= 0.10
     Davidson diagonalization with overlap
     ethr =  4.71E-09,  avg # of iterations =  1.0

     total cpu time spent up to now is      129.0 secs

     total energy              =   -1130.04139780 Ry
     Harris-Foulkes estimate   =   -1130.04140922 Ry
     estimated scf accuracy    <       0.00005367 Ry

     iteration # 29     ecut=    66.00 Ry     beta= 0.10
     Davidson diagonalization with overlap
     ethr =  4.71E-09,  avg # of iterations =  4.7

     total cpu time spent up to now is      135.9 secs

     total energy              =   -1130.04140431 Ry
     Harris-Foulkes estimate   =   -1130.04140622 Ry
     estimated scf accuracy    <       0.00001306 Ry

     iteration # 30     ecut=    66.00 Ry     beta= 0.10
     Davidson diagonalization with overlap
     ethr =  4.71E-09,  avg # of iterations =  1.7

     total cpu time spent up to now is      139.2 secs

     total energy              =   -1130.04140429 Ry
     Harris-Foulkes estimate   =   -1130.04140472 Ry
     estimated scf accuracy    <       0.00000359 Ry

     iteration # 31     ecut=    66.00 Ry     beta= 0.10
     Davidson diagonalization with overlap
     ethr =  3.74E-09,  avg # of iterations =  3.8

     total cpu time spent up to now is      143.7 secs

     total energy              =   -1130.04140461 Ry
     Harris-Foulkes estimate   =   -1130.04140473 Ry
     estimated scf accuracy    <       0.00000223 Ry

     iteration # 32     ecut=    66.00 Ry     beta= 0.10
     Davidson diagonalization with overlap
     ethr =  2.32E-09,  avg # of iterations =  4.0

     total cpu time spent up to now is      148.4 secs

     total energy              =   -1130.04140474 Ry
     Harris-Foulkes estimate   =   -1130.04140486 Ry
     estimated scf accuracy    <       0.00000344 Ry

     iteration # 33     ecut=    66.00 Ry     beta= 0.10
     Davidson diagonalization with overlap
     ethr =  2.32E-09,  avg # of iterations =  1.0

     total cpu time spent up to now is      151.3 secs

     total energy              =   -1130.04140512 Ry
     Harris-Foulkes estimate   =   -1130.04140480 Ry
     estimated scf accuracy    <       0.00000195 Ry

     iteration # 34     ecut=    66.00 Ry     beta= 0.10
     Davidson diagonalization with overlap
     ethr =  2.04E-09,  avg # of iterations =  2.5

     total cpu time spent up to now is      155.0 secs

     total energy              =   -1130.04140506 Ry
     Harris-Foulkes estimate   =   -1130.04140537 Ry
     estimated scf accuracy    <       0.00000745 Ry

     iteration # 35     ecut=    66.00 Ry     beta= 0.10
     Davidson diagonalization with overlap
     ethr =  2.04E-09,  avg # of iterations =  1.0

     total cpu time spent up to now is      157.9 secs

     total energy              =   -1130.04140500 Ry
     Harris-Foulkes estimate   =   -1130.04140510 Ry
     estimated scf accuracy    <       0.00000661 Ry

     iteration # 36     ecut=    66.00 Ry     beta= 0.10
     Davidson diagonalization with overlap
     ethr =  2.04E-09,  avg # of iterations =  1.5

     total cpu time spent up to now is      161.1 secs

     total energy              =   -1130.04140505 Ry
     Harris-Foulkes estimate   =   -1130.04140515 Ry
     estimated scf accuracy    <       0.00000328 Ry

     iteration # 37     ecut=    66.00 Ry     beta= 0.10
     Davidson diagonalization with overlap
     ethr =  2.04E-09,  avg # of iterations =  1.6

     total cpu time spent up to now is      164.3 secs

     total energy              =   -1130.04140499 Ry
     Harris-Foulkes estimate   =   -1130.04140528 Ry
     estimated scf accuracy    <       0.00000829 Ry

     iteration # 38     ecut=    66.00 Ry     beta= 0.10
     Davidson diagonalization with overlap
     ethr =  2.04E-09,  avg # of iterations =  1.7

     total cpu time spent up to now is      167.5 secs

     total energy              =   -1130.04140510 Ry
     Harris-Foulkes estimate   =   -1130.04140530 Ry
     estimated scf accuracy    <       0.00000172 Ry

     iteration # 39     ecut=    66.00 Ry     beta= 0.10
     Davidson diagonalization with overlap
     ethr =  1.80E-09,  avg # of iterations =  3.6

     total cpu time spent up to now is      172.1 secs

     End of self-consistent calculation

          k = 0.1000 0.1000 0.1000 (  4785 PWs)   bands (ev):

    29.6268  35.1228  35.1342  35.1434  37.0399  37.0493  37.0569  39.6215
    39.6322  39.6408  40.8563  40.8586  40.8609  41.2586  41.2650  41.2670
    41.2725  41.2829  41.2837  42.6981  42.7056  42.7116  43.0633  44.2845
    44.2875  44.2933  44.2971  44.3025  44.3086  44.6154  44.6265  44.6372
    46.2155  46.2271  46.2384  47.7201  52.1394  52.1416  52.1442  52.7668
    52.7681  52.7700  52.7709  52.7728  52.7744  53.4225  53.4242  53.4263
    53.4286  53.4301  53.4319  53.7628  53.7641  53.7647  54.4496  54.4513
    54.4524  54.7097

          k = 0.1000 0.1000 0.3000 (  4773 PWs)   bands (ev):

    30.2904  33.2187  35.6631  35.6675  37.5628  37.5666  38.0379  38.0421
    38.7203  39.8147  39.8189  40.0102  40.6105  41.4482  41.4502  41.6544
    41.6616  41.7656  42.7414  42.7444  43.1147  43.3988  43.4087  43.5620
    43.5633  43.8747  43.8764  44.2329  44.2341  44.4876  44.4903  44.9365
    46.4871  47.9427  47.9538  49.4678  51.1121  52.1956  52.1980  52.3170
    52.3209  52.3623  52.3702  52.5254  52.5266  52.5766  52.5775  52.7704
    52.8510  52.8514  53.6347  53.6378  53.7469  53.7495  53.8345  53.9433
    53.9451  54.1344

          k = 0.1000 0.1000-0.5000 (  4804 PWs)   bands (ev):

    31.5324  31.5426  36.6614  36.6679  36.6738  36.6770  38.5216  38.5268
    38.5317  38.5351  39.9298  39.9420  40.7313  40.7386  42.3823  42.3906
    42.3926  42.3976  42.4601  42.4614  42.4636  42.4661  43.7756  43.7779
    43.7870  43.7899  43.8832  43.8874  44.4824  44.4841  44.4914  44.4933
    48.6349  48.6530  49.9887  50.0016  50.0119  50.0190  51.5066  51.5223
    52.2507  52.2573  52.2650  52.2724  52.3191  52.3212  52.3239  52.3259
    52.8321  52.8461  52.8536  52.8645  54.0167  54.0429  54.0737  54.0744
    54.0755  54.0763

          k = 0.1000 0.3000 0.3000 (  4792 PWs)   bands (ev):

    30.9331  33.7776  33.7910  36.1694  36.3251  38.0547  38.4425  38.4544
    39.2411  39.2471  40.2167  40.2276  40.3588  41.1819  41.1918  41.4317
    41.4455  42.0215  42.0735  43.1744  43.1804  43.3354  43.3441  43.9716
    43.9753  44.3062  44.3098  44.5336  44.5438  44.5472  45.0525  45.0680
    46.8515  46.8676  49.6483  50.2226  50.2279  51.1693  51.1732  51.2047
    51.2159  51.2507  52.0552  52.0859  52.0928  52.1200  52.6804  52.6816
    52.7400  52.7513  53.7592  53.7688  53.9888  53.9894  54.2497  54.3068
    54.3280  54.5318

          k = 0.1000 0.3000-0.5000 (  4754 PWs)   bands (ev):

    32.1389  32.1491  34.8514  34.8614  37.1230  37.1323  38.9718  38.9793
    39.2324  39.2414  40.2006  40.2064  40.4795  40.4917  40.9913  40.9986
    42.1921  42.1931  42.6588  42.6707  42.9853  42.9889  43.9848  43.9885
    44.2160  44.2266  44.4781  44.4841  44.7798  44.7869  45.0482  45.0484
    47.8997  47.9167  48.8911  48.9085  50.1989  50.2110  50.7080  50.7205
    51.5916  51.6075  51.7650  51.7772  52.0395  52.0467  52.7122  52.7165
    53.2486  53.2632  53.2727  53.2872  53.8492  53.8738  54.1235  54.1247
    54.3161  54.3235

          k = 0.1000-0.5000-0.5000 (  4740 PWs)   bands (ev):

    33.2810  33.2871  33.2966  33.3012  37.9960  38.0015  38.0098  38.0139
    39.8168  39.8214  39.8287  39.8321  41.4467  41.4550  41.4663  41.4677
    41.4699  41.4735  41.4787  41.4868  43.8125  43.8139  43.8169  43.8189
    44.8937  44.8964  44.9034  44.9046  44.9059  44.9088  44.9106  44.9147
    48.7992  48.8094  48.8130  48.8211  48.8253  48.8308  48.8346  48.8461
    51.7354  51.7396  51.7476  51.7531  53.3689  53.3730  53.3797  53.3864
    53.5647  53.5690  53.5802  53.5839  53.5928  53.5995  53.6074  53.6161
    54.1929  54.1940

          k = 0.3000 0.3000 0.3000 (  4788 PWs)   bands (ev):

    31.5534  34.3120  34.3240  34.3336  36.7582  36.7698  36.7790  38.8458
    39.7419  39.7473  39.7517  41.7415  41.7479  41.7542  41.8688  41.8732
    41.8764  41.8825  41.8891  41.8913  43.7889  43.7940  43.7969  43.8005
    43.8018  43.8077  43.8129  43.8214  43.8283  44.8372  44.8382  44.8393
    48.4389  48.4508  48.4626  49.7947  49.8012  49.8065  51.4770  51.4785
    51.4806  51.4842  51.4898  51.4958  52.3580  52.3634  52.3657  52.3698
    52.3823  52.3874  52.4218  52.4282  52.4370  53.1018  54.7214  54.7271
    54.7335  55.3071

          k = 0.3000 0.3000-0.5000 (  4758 PWs)   bands (ev):

    32.7210  32.7312  35.3409  35.3478  35.3543  35.3572  37.6223  37.6316
    40.6683  40.6717  40.6746  40.6782  41.0134  41.0257  42.6952  42.7026
    42.7052  42.7097  42.7195  42.7206  42.7239  42.7278  43.1403  43.1421
    43.1517  43.1549  44.4878  44.4901  44.4924  44.4971  44.9298  44.9379
    48.2770  48.2888  50.2910  50.3107  50.3123  50.3221  50.3372  50.3422
    50.3510  50.3617  51.5148  51.5295  51.5372  51.5497  51.9455  51.9528
    51.9544  51.9586  53.2587  53.2810  53.5634  53.5730  53.5764  53.5854
    55.2165  55.2279

          k = 0.3000-0.5000-0.5000 (  4772 PWs)   bands (ev):

    33.8212  33.8274  33.8368  33.8414  36.2880  36.2938  36.3029  36.3072
    41.5402  41.5436  41.5489  41.5515  41.9556  41.9639  41.9757  41.9770
    41.9790  41.9830  41.9881  41.9964  43.6131  43.6136  43.6146  43.6154
    43.9809  43.9879  43.9997  44.0005  44.0021  44.0069  44.0105  44.0187
    49.7299  49.7353  49.7432  49.7521  49.7594  49.7610  49.7675  49.7755
    51.0335  51.0373  51.0442  51.0482  51.8981  51.9014  51.9095  51.9147
    52.4052  52.4078  52.4130  52.4203  52.4323  52.4334  52.4422  52.4432
    56.0442  56.0466

          k =-0.5000-0.5000-0.5000 (  4776 PWs)   bands (ev):

    34.8424  34.8533  34.8550  34.8627  34.8669  34.8694  34.8807  34.8837
    42.8558  42.8590  42.8647  42.8709  42.8771  42.8790  42.8807  42.8814
    42.8830  42.8845  42.8867  42.8884  42.8925  42.8968  42.8978  42.9016
    42.9030  42.9070  42.9080  42.9141  42.9177  42.9195  42.9212  42.9271
    50.9909  51.0034  51.0078  51.0133  51.0159  51.0204  51.0254  51.0294
    51.0306  51.0333  51.0344  51.0369  51.0410  51.0426  51.0456  51.0526
    51.0542  51.0616  51.0618  51.0682  51.0723  51.0770  51.0835  51.0851
    58.6616  58.6656

          k =-0.1000-0.1000 0.1000 (  4785 PWs)   bands (ev):

    29.6268  35.1248  35.1342  35.1414  37.0415  37.0494  37.0553  39.6233
    39.6322  39.6389  40.8573  40.8586  40.8601  41.2527  41.2629  41.2682
    41.2696  41.2828  41.2936  42.6992  42.7056  42.7105  43.0632  44.2845
    44.2880  44.2936  44.2972  44.3021  44.3083  44.6197  44.6262  44.6329
    46.2200  46.2269  46.2340  47.7202  52.1402  52.1418  52.1432  52.7669
    52.7684  52.7689  52.7711  52.7737  52.7742  53.4217  53.4249  53.4272
    53.4280  53.4290  53.4318  53.7633  53.7645  53.7653  54.4501  54.4509
    54.4520  54.7036

          k =-0.1000 0.1000-0.1000 (  4785 PWs)   bands (ev):

    29.6268  35.1237  35.1334  35.1433  37.0406  37.0488  37.0568  39.6223
    39.6314  39.6407  40.8562  40.8586  40.8612  41.2504  41.2604  41.2713
    41.2760  41.2839  41.2877  42.6986  42.7050  42.7116  43.0632  44.2847
    44.2885  44.2929  44.2976  44.3022  44.3077  44.6146  44.6264  44.6381
    46.2147  46.2270  46.2393  47.7201  52.1391  52.1417  52.1444  52.7675
    52.7683  52.7695  52.7710  52.7725  52.7739  53.4238  53.4249  53.4267
    53.4278  53.4298  53.4306  53.7634  53.7639  53.7650  54.4495  54.4511
    54.4527  54.7006

          k = 0.1000-0.1000-0.1000 (  4785 PWs)   bands (ev):

    29.6268  35.1224  35.1359  35.1421  37.0395  37.0508  37.0558  39.6212
    39.6338  39.6395  40.8558  40.8586  40.8614  41.2514  41.2638  41.2698
    41.2742  41.2814  41.2891  42.6976  42.7066  42.7108  43.0634  44.2851
    44.2877  44.2923  44.2974  44.3024  44.3086  44.6134  44.6263  44.6394
    46.2133  46.2269  46.2407  47.7200  52.1388  52.1418  52.1446  52.7666
    52.7675  52.7694  52.7720  52.7731  52.7745  53.4231  53.4246  53.4257
    53.4277  53.4293  53.4314  53.7626  53.7647  53.7664  54.4493  54.4510
    54.4530  54.7001

          k =-0.1000-0.1000 0.3000 (  4773 PWs)   bands (ev):

    30.2904  33.2187  35.6630  35.6675  37.5629  37.5665  38.0379  38.0422
    38.7202  39.8151  39.8188  40.0098  40.6106  41.4481  41.4503  41.6536
    41.6622  41.7658  42.7417  42.7443  43.1145  43.3991  43.4087  43.5618
    43.5635  43.8746  43.8762  44.2329  44.2340  44.4876  44.4902  44.9366
    46.4871  47.9427  47.9539  49.4678  51.1120  52.1960  52.1975  52.3142
    52.3210  52.3625  52.3731  52.5254  52.5268  52.5763  52.5773  52.7708
    52.8506  52.8515  53.6349  53.6376  53.7483  53.7498  53.8333  53.9435
    53.9449  54.1342

          k =-0.1000 0.1000-0.3000 (  4773 PWs)   bands (ev):

    30.2904  33.2187  35.6613  35.6693  37.5615  37.5681  38.0360  38.0439
    38.7201  39.8136  39.8203  40.0100  40.6105  41.4471  41.4513  41.6506
    41.6662  41.7649  42.7406  42.7452  43.1147  43.3943  43.4136  43.5611
    43.5642  43.8738  43.8768  44.2323  44.2346  44.4865  44.4915  44.9365
    46.4870  47.9373  47.9593  49.4679  51.1121  52.1946  52.1989  52.3172
    52.3192  52.3555  52.3776  52.5253  52.5278  52.5762  52.5776  52.7696
    52.8509  52.8525  53.6340  53.6387  53.7477  53.7500  53.8325  53.9438
    53.9452  54.1339

          k = 0.1000-0.1000-0.3000 (  4773 PWs)   bands (ev):

    30.2904  33.2187  35.6613  35.6693  37.5612  37.5680  38.0362  38.0440
    38.7203  39.8137  39.8205  40.0096  40.6105  41.4470  41.4513  41.6492
    41.6666  41.7659  42.7409  42.7453  43.1139  43.3945  43.4134  43.5609
    43.5642  43.8743  43.8770  44.2324  44.2347  44.4864  44.4913  44.9364
    46.4871  47.9373  47.9593  49.4676  51.1120  52.1949  52.1988  52.3198
    52.3204  52.3532  52.3763  52.5251  52.5275  52.5763  52.5778  52.7709
    52.8506  52.8513  53.6341  53.6381  53.7473  53.7497  53.8345  53.9432
    53.9448  54.1344

          k = 0.3000-0.1000 0.1000 (  4773 PWs)   bands (ev):

    30.2904  33.2187  35.6608  35.6697  37.5611  37.5686  38.0356  38.0441
    38.7202  39.8134  39.8208  40.0097  40.6107  41.4482  41.4501  41.6553
    41.6621  41.7641  42.7403  42.7455  43.1148  43.3995  43.4080  43.5619
    43.5633  43.8739  43.8771  44.2323  44.2347  44.4862  44.4917  44.9366
    46.4871  47.9434  47.9531  49.4678  51.1119  52.1962  52.1977  52.3161
    52.3181  52.3636  52.3717  52.5261  52.5271  52.5761  52.5780  52.7702
    52.8502  52.8520  53.6341  53.6382  53.7483  53.7495  53.8331  53.9429
    53.9457  54.1339

          k =-0.3000-0.1000-0.1000 (  4773 PWs)   bands (ev):

    30.2904  33.2187  35.6589  35.6717  37.5595  37.5701  38.0336  38.0462
    38.7201  39.8116  39.8224  40.0101  40.6106  41.4473  41.4509  41.6519
    41.6656  41.7642  42.7391  42.7464  43.1151  43.3954  43.4118  43.5616
    43.5639  43.8731  43.8779  44.2316  44.2353  44.4850  44.4929  44.9366
    46.4870  47.9388  47.9578  49.4677  51.1121  52.1943  52.1985  52.3156
    52.3207  52.3585  52.3761  52.5253  52.5272  52.5754  52.5785  52.7710
    52.8505  52.8515  53.6326  53.6403  53.7471  53.7496  53.8343  53.9428
    53.9448  54.1333

          k = 0.3000 0.1000-0.1000 (  4773 PWs)   bands (ev):

    30.2904  33.2187  35.6608  35.6697  37.5612  37.5685  38.0355  38.0441
    38.7203  39.8134  39.8210  40.0096  40.6106  41.4483  41.4501  41.6552
    41.6621  41.7641  42.7403  42.7458  43.1146  43.3992  43.4081  43.5620
    43.5632  43.8741  43.8770  44.2321  44.2348  44.4862  44.4917  44.9366
    46.4870  47.9434  47.9531  49.4678  51.1121  52.1960  52.1978  52.3165
    52.3204  52.3624  52.3703  52.5257  52.5270  52.5763  52.5779  52.7711
    52.8499  52.8512  53.6338  53.6389  53.7476  53.7491  53.8345  53.9432
    53.9447  54.1340

          k =-0.3000 0.1000 0.1000 (  4773 PWs)   bands (ev):

    30.2904  33.2187  35.6589  35.6717  37.5594  37.5701  38.0336  38.0461
    38.7204  39.8114  39.8224  40.0101  40.6106  41.4472  41.4510  41.6515
    41.6657  41.7645  42.7393  42.7466  43.1149  43.3950  43.4118  43.5613
    43.5641  43.8731  43.8781  44.2317  44.2352  44.4850  44.4930  44.9366
    46.4871  47.9388  47.9578  49.4677  51.1119  52.1949  52.1979  52.3174
    52.3227  52.3565  52.3742  52.5252  52.5272  52.5754  52.5783  52.7712
    52.8506  52.8517  53.6326  53.6402  53.7479  53.7501  53.8331  53.9428
    53.9451  54.1334

          k =-0.1000 0.3000 0.1000 (  4773 PWs)   bands (ev):

    30.2904  33.2187  35.6586  35.6720  37.5589  37.5704  38.0335  38.0466
    38.7203  39.8113  39.8225  40.0102  40.6105  41.4490  41.4493  41.6564
    41.6595  41.7657  42.7392  42.7468  43.1143  43.4032  43.4042  43.5626
    43.5628  43.8731  43.8782  44.2316  44.2353  44.4847  44.4931  44.9364
    46.4872  47.9477  47.9490  49.4676  51.1120  52.1966  52.1968  52.3178
    52.3230  52.3639  52.3665  52.5253  52.5258  52.5760  52.5786  52.7710
    52.8499  52.8518  53.6322  53.6399  53.7470  53.7492  53.8351  53.9428
    53.9456  54.1339

          k =-0.1000-0.3000-0.1000 (  4773 PWs)   bands (ev):

    30.2904  33.2187  35.6575  35.6731  37.5580  37.5713  38.0326  38.0475
    38.7203  39.8105  39.8238  40.0096  40.6105  41.4482  41.4502  41.6549
    41.6610  41.7657  42.7385  42.7476  43.1143  43.3991  43.4086  43.5618
    43.5634  43.8728  43.8783  44.2312  44.2357  44.4840  44.4939  44.9364
    46.4872  47.9431  47.9534  49.4678  51.1122  52.1962  52.1979  52.3161
    52.3227  52.3586  52.3712  52.5260  52.5271  52.5751  52.5782  52.7710
    52.8510  52.8518  53.6314  53.6399  53.7486  53.7494  53.8333  53.9427
    53.9465  54.1329

          k = 0.1000 0.3000-0.1000 (  4773 PWs)   bands (ev):

    30.2905  33.2187  35.6585  35.6720  37.5592  37.5704  38.0333  38.0466
    38.7201  39.8115  39.8229  40.0094  40.6106  41.4490  41.4493  41.6577
    41.6590  41.7650  42.7391  42.7469  43.1144  43.4033  43.4044  43.5626
    43.5628  43.8728  43.8780  44.2314  44.2353  44.4847  44.4932  44.9366
    46.4871  47.9477  47.9490  49.4678  51.1120  52.1964  52.1970  52.3171
    52.3207  52.3649  52.3686  52.5257  52.5258  52.5757  52.5781  52.7711
    52.8502  52.8513  53.6321  53.6401  53.7477  53.7489  53.8340  53.9434
    53.9459  54.1332

          k = 0.1000-0.3000 0.1000 (  4773 PWs)   bands (ev):

    30.2905  33.2187  35.6575  35.6731  37.5583  37.5713  38.0324  38.0476
    38.7202  39.8103  39.8235  40.0100  40.6106  41.4482  41.4502  41.6542
    41.6621  41.7652  42.7384  42.7474  43.1146  43.3993  43.4085  43.5618
    43.5633  43.8725  43.8783  44.2312  44.2357  44.4840  44.4938  44.9365
    46.4872  47.9431  47.9535  49.4678  51.1122  52.1961  52.1981  52.3129
    52.3222  52.3602  52.3738  52.5256  52.5268  52.5756  52.5786  52.7707
    52.8500  52.8520  53.6316  53.6406  53.7485  53.7495  53.8331  53.9426
    53.9458  54.1328

          k =-0.1000 0.1000 0.5000 (  4804 PWs)   bands (ev):

    31.5324  31.5426  36.6598  36.6697  36.6712  36.6793  38.5201  38.5284
    38.5298  38.5367  39.9299  39.9420  40.7313  40.7386  42.3793  42.3847
    42.3960  42.4030  42.4587  42.4620  42.4636  42.4667  43.7764  43.7780
    43.7873  43.7891  43.8827  43.8875  44.4822  44.4842  44.4912  44.4936
    48.6349  48.6531  49.9858  49.9999  50.0100  50.0255  51.5067  51.5222
    52.2529  52.2558  52.2662  52.2697  52.3189  52.3218  52.3230  52.3269
    52.8384  52.8446  52.8547  52.8588  54.0165  54.0426  54.0732  54.0737
    54.0761  54.0773

          k =-0.5000-0.1000 0.1000 (  4804 PWs)   bands (ev):

    31.5319  31.5431  36.6604  36.6670  36.6708  36.6819  38.5206  38.5261
    38.5296  38.5388  39.9293  39.9427  40.7309  40.7390  42.3783  42.3929
    42.3953  42.3964  42.4598  42.4618  42.4622  42.4673  43.7762  43.7773
    43.7881  43.7899  43.8821  43.8873  44.4815  44.4840  44.4925  44.4935
    48.6339  48.6541  49.9828  50.0064  50.0116  50.0202  51.5059  51.5229
    52.2516  52.2552  52.2681  52.2707  52.3182  52.3216  52.3247  52.3256
    52.8377  52.8424  52.8543  52.8618  54.0156  54.0452  54.0732  54.0739
    54.0752  54.0765

          k = 0.5000-0.1000-0.1000 (  4804 PWs)   bands (ev):

    31.5319  31.5431  36.6594  36.6672  36.6703  36.6832  38.5197  38.5259
    38.5289  38.5405  39.9293  39.9427  40.7310  40.7391  42.3802  42.3859
    42.3945  42.4014  42.4594  42.4622  42.4638  42.4665  43.7746  43.7777
    43.7862  43.7926  43.8827  43.8872  44.4807  44.4847  44.4921  44.4940
    48.6339  48.6540  49.9862  50.0004  50.0093  50.0253  51.5058  51.5227
    52.2472  52.2573  52.2649  52.2758  52.3184  52.3216  52.3238  52.3268
    52.8263  52.8478  52.8529  52.8696  54.0156  54.0453  54.0732  54.0736
    54.0758  54.0760

          k =-0.1000-0.5000 0.1000 (  4804 PWs)   bands (ev):

    31.5360  31.5390  36.6587  36.6663  36.6763  36.6787  38.5186  38.5259
    38.5340  38.5367  39.9340  39.9378  40.7339  40.7361  42.3888  42.3898
    42.3915  42.3926  42.4620  42.4622  42.4633  42.4637  43.7770  43.7826
    43.7841  43.7872  43.8840  43.8860  44.4842  44.4861  44.4884  44.4925
    48.6411  48.6467  50.0013  50.0029  50.0080  50.0094  51.5120  51.5168
    52.2520  52.2601  52.2629  52.2697  52.3213  52.3222  52.3232  52.3238
    52.8335  52.8457  52.8508  52.8662  54.0258  54.0341  54.0743  54.0744
    54.0753  54.0759

          k =-0.1000 0.5000-0.1000 (  4804 PWs)   bands (ev):

    31.5360  31.5390  36.6596  36.6643  36.6769  36.6792  38.5200  38.5239
    38.5347  38.5366  39.9340  39.9378  40.7339  40.7360  42.3822  42.3912
    42.3922  42.3977  42.4609  42.4620  42.4625  42.4654  43.7787  43.7824
    43.7838  43.7861  43.8837  43.8860  44.4850  44.4870  44.4883  44.4910
    48.6413  48.6468  49.9922  50.0073  50.0081  50.0133  51.5121  51.5169
    52.2574  52.2604  52.2620  52.2655  52.3199  52.3229  52.3231  52.3237
    52.8416  52.8473  52.8519  52.8558  54.0258  54.0344  54.0735  54.0745
    54.0754  54.0763

          k =-0.1000-0.3000 0.3000 (  4792 PWs)   bands (ev):

    30.9331  33.7796  33.7889  36.1695  36.3251  38.0545  38.4442  38.4529
    39.2420  39.2462  40.2186  40.2247  40.3596  41.1844  41.1894  41.4352
    41.4422  42.0215  42.0735  43.1753  43.1797  43.3366  43.3426  43.9721
    43.9748  44.3066  44.3094  44.5330  44.5448  44.5466  45.0564  45.0643
    46.8554  46.8637  49.6490  50.2232  50.2267  51.1684  51.1705  51.2111
    51.2193  51.2447  52.0544  52.0867  52.0926  52.1201  52.6805  52.6815
    52.7427  52.7487  53.7604  53.7672  53.9886  53.9891  54.2495  54.3126
    54.3231  54.5323

          k =-0.1000 0.3000-0.3000 (  4792 PWs)   bands (ev):

    30.9331  33.7796  33.7889  36.1695  36.3251  38.0547  38.4441  38.4528
    39.2420  39.2462  40.2187  40.2252  40.3590  41.1844  41.1894  41.4352
    41.4422  42.0214  42.0736  43.1754  43.1797  43.3365  43.3426  43.9722
    43.9748  44.3066  44.3093  44.5323  44.5450  44.5472  45.0563  45.0643
    46.8554  46.8636  49.6488  50.2235  50.2268  51.1689  51.1702  51.2110
    51.2194  51.2442  52.0544  52.0870  52.0926  52.1199  52.6805  52.6814
    52.7428  52.7485  53.7609  53.7675  53.9887  53.9891  54.2495  54.3123
    54.3227  54.5325

          k = 0.1000-0.3000-0.3000 (  4792 PWs)   bands (ev):

    30.9331  33.7776  33.7910  36.1694  36.3252  38.0544  38.4426  38.4546
    39.2412  39.2471  40.2164  40.2270  40.3595  41.1819  41.1918  41.4318
    41.4455  42.0215  42.0734  43.1743  43.1804  43.3353  43.3441  43.9716
    43.9753  44.3062  44.3098  44.5337  44.5437  44.5472  45.0526  45.0680
    46.8515  46.8677  49.6487  50.2225  50.2276  51.1689  51.1732  51.2030
    51.2158  51.2532  52.0553  52.0856  52.0928  52.1197  52.6804  52.6816
    52.7401  52.7513  53.7594  53.7687  53.9886  53.9891  54.2496  54.3070
    54.3284  54.5319

          k = 0.3000 0.1000-0.3000 (  4792 PWs)   bands (ev):

    30.9331  33.7772  33.7914  36.1693  36.3252  38.0549  38.4419  38.4546
    39.2409  39.2472  40.2171  40.2278  40.3583  41.1865  41.1872  41.4378
    41.4393  42.0214  42.0738  43.1743  43.1806  43.3351  43.3442  43.9714
    43.9755  44.3061  44.3101  44.5326  44.5453  44.5465  45.0596  45.0608
    46.8591  46.8602  49.6485  50.2226  50.2277  51.1696  51.1715  51.2060
    51.2184  51.2484  52.0536  52.0866  52.0933  52.1205  52.6805  52.6816
    52.7452  52.7459  53.7588  53.7691  53.9890  53.9893  54.2496  54.3167
    54.3181  54.5318

          k =-0.3000-0.1000-0.3000 (  4792 PWs)   bands (ev):

    30.9331  33.7761  33.7925  36.1694  36.3252  38.0547  38.4407  38.4559
    39.2405  39.2477  40.2162  40.2280  40.3589  41.1842  41.1897  41.4349
    41.4424  42.0214  42.0738  43.1736  43.1811  43.3342  43.3449  43.9712
    43.9757  44.3058  44.3104  44.5334  44.5447  44.5464  45.0561  45.0645
    46.8552  46.8639  49.6489  50.2217  50.2281  51.1692  51.1702  51.2135
    51.2185  51.2425  52.0545  52.0851  52.0943  52.1206  52.6803  52.6814
    52.7429  52.7485  53.7581  53.7698  53.9883  53.9891  54.2496  54.3119
    54.3234  54.5316

          k = 0.3000-0.1000 0.3000 (  4792 PWs)   bands (ev):

    30.9331  33.7761  33.7925  36.1693  36.3252  38.0548  38.4408  38.4558
    39.2403  39.2478  40.2164  40.2283  40.3584  41.1842  41.1896  41.4351
    41.4421  42.0214  42.0738  43.1737  43.1812  43.3343  43.3448  43.9712
    43.9757  44.3059  44.3103  44.5333  44.5447  44.5465  45.0561  45.0644
    46.8551  46.8639  49.6489  50.2217  50.2282  51.1699  51.1709  51.2129
    51.2178  51.2424  52.0534  52.0859  52.0943  52.1208  52.6803  52.6812
    52.7428  52.7487  53.7580  53.7697  53.9888  53.9891  54.2496  54.3117
    54.3235  54.5314

          k =-0.3000 0.1000 0.3000 (  4792 PWs)   bands (ev):

    30.9331  33.7772  33.7914  36.1695  36.3251  38.0546  38.4421  38.4547
    39.2411  39.2473  40.2163  40.2278  40.3587  41.1865  41.1873  41.4382
    41.4391  42.0214  42.0736  43.1742  43.1806  43.3351  43.3443  43.9714
    43.9755  44.3060  44.3100  44.5333  44.5454  44.5458  45.0599  45.0608
    46.8590  46.8602  49.6488  50.2224  50.2276  51.1702  51.1712  51.2042
    51.2183  51.2499  52.0525  52.0871  52.0936  52.1208  52.6804  52.6816
    52.7452  52.7460  53.7588  53.7692  53.9888  53.9892  54.2495  54.3166
    54.3185  54.5319

          k = 0.3000-0.3000 0.1000 (  4792 PWs)   bands (ev):

    30.9331  33.7801  33.7884  36.1694  36.3251  38.0550  38.4445  38.4520
    39.2422  39.2459  40.2195  40.2258  40.3577  41.1812  41.1927  41.4305
    41.4466  42.0214  42.0738  43.1757  43.1793  43.3369  43.3423  43.9722
    43.9746  44.3070  44.3092  44.5325  44.5440  44.5480  45.0513  45.0692
    46.8503  46.8689  49.6485  50.2238  50.2266  51.1679  51.1721  51.2074
    51.2183  51.2480  52.0550  52.0879  52.0917  52.1196  52.6803  52.6815
    52.7393  52.7520  53.7611  53.7667  53.9888  53.9890  54.2496  54.3049
    54.3300  54.5324

          k =-0.3000-0.3000-0.1000 (  4792 PWs)   bands (ev):

    30.9331  33.7819  33.7866  36.1695  36.3250  38.0548  38.4463  38.4504
    39.2431  39.2451  40.2202  40.2244  40.3584  41.1840  41.1899  41.4345
    41.4427  42.0214  42.0737  43.1764  43.1785  43.3382  43.3411  43.9728
    43.9740  44.3074  44.3087  44.5333  44.5445  44.5466  45.0558  45.0648
    46.8548  46.8642  49.6488  50.2242  50.2260  51.1692  51.1708  51.2082
    51.2178  51.2476  52.0557  52.0878  52.0907  52.1198  52.6808  52.6810
    52.7424  52.7490  53.7623  53.7658  53.9883  53.9892  54.2497  54.3115
    54.3235  54.5332

          k = 0.3000 0.3000-0.1000 (  4792 PWs)   bands (ev):

    30.9331  33.7819  33.7866  36.1694  36.3252  38.0549  38.4462  38.4504
    39.2430  39.2452  40.2208  40.2243  40.3579  41.1840  41.1898  41.4348
    41.4425  42.0214  42.0737  43.1765  43.1786  43.3381  43.3411  43.9728
    43.9740  44.3073  44.3087  44.5326  44.5450  44.5470  45.0557  45.0647
    46.8549  46.8643  49.6487  50.2242  50.2259  51.1702  51.1716  51.2091
    51.2163  51.2469  52.0544  52.0878  52.0914  52.1200  52.6808  52.6810
    52.7423  52.7490  53.7624  53.7653  53.9887  53.9890  54.2498  54.3115
    54.3236  54.5330

          k =-0.3000 0.3000 0.1000 (  4792 PWs)   bands (ev):

    30.9331  33.7801  33.7884  36.1695  36.3251  38.0547  38.4447  38.4520
    39.2425  39.2460  40.2185  40.2259  40.3584  41.1812  41.1927  41.4309
    41.4465  42.0214  42.0735  43.1756  43.1793  43.3370  43.3423  43.9722
    43.9746  44.3069  44.3091  44.5331  44.5438  44.5476  45.0514  45.0693
    46.8503  46.8690  49.6487  50.2237  50.2263  51.1686  51.1723  51.2041
    51.2188  51.2501  52.0537  52.0875  52.0929  52.1198  52.6804  52.6815
    52.7394  52.7521  53.7612  53.7671  53.9887  53.9889  54.2498  54.3050
    54.3300  54.5327

          k =-0.1000 0.3000 0.5000 (  4754 PWs)   bands (ev):

    32.1389  32.1492  34.8514  34.8614  37.1230  37.1323  38.9718  38.9795
    39.2324  39.2411  40.2006  40.2065  40.4794  40.4916  40.9914  40.9985
    42.1921  42.1930  42.6588  42.6708  42.9853  42.9889  43.9848  43.9885
    44.2161  44.2265  44.4780  44.4842  44.7798  44.7869  45.0481  45.0485
    47.8997  47.9167  48.8912  48.9085  50.1988  50.2111  50.7080  50.7205
    51.5921  51.6071  51.7642  51.7774  52.0398  52.0468  52.7120  52.7166
    53.2481  53.2617  53.2735  53.2889  53.8490  53.8736  54.1234  54.1247
    54.3161  54.3236

          k = 0.3000 0.1000 0.5000 (  4754 PWs)   bands (ev):

    32.1389  32.1491  34.8515  34.8615  37.1230  37.1322  38.9720  38.9801
    39.2322  39.2404  40.2006  40.2066  40.4795  40.4916  40.9914  40.9988
    42.1921  42.1932  42.6587  42.6708  42.9853  42.9889  43.9847  43.9882
    44.2161  44.2264  44.4781  44.4842  44.7799  44.7869  45.0481  45.0485
    47.8997  47.9167  48.8911  48.9085  50.1990  50.2111  50.7080  50.7205
    51.5918  51.6068  51.7644  51.7778  52.0399  52.0469  52.7117  52.7166
    53.2439  53.2611  53.2779  53.2894  53.8491  53.8737  54.1234  54.1246
    54.3161  54.3237

          k = 0.3000-0.1000-0.5000 (  4754 PWs)   bands (ev):

    32.1389  32.1491  34.8515  34.8615  37.1230  37.1322  38.9720  38.9798
    39.2321  39.2408  40.2006  40.2064  40.4794  40.4916  40.9914  40.9989
    42.1921  42.1931  42.6587  42.6708  42.9853  42.9889  43.9848  43.9883
    44.2161  44.2265  44.4780  44.4841  44.7799  44.7870  45.0481  45.0485
    47.8996  47.9167  48.8911  48.9084  50.1989  50.2111  50.7081  50.7205
    51.5925  51.6071  51.7638  51.7775  52.0397  52.0469  52.7121  52.7166
    53.2426  53.2619  53.2758  53.2917  53.8489  53.8736  54.1235  54.1248
    54.3160  54.3236

          k =-0.5000-0.3000 0.1000 (  4754 PWs)   bands (ev):

    32.1384  32.1497  34.8509  34.8620  37.1225  37.1329  38.9717  38.9806
    39.2316  39.2410  40.1999  40.2065  40.4791  40.4926  40.9912  40.9990
    42.1920  42.1930  42.6582  42.6716  42.9851  42.9890  43.9843  43.9885
    44.2158  44.2272  44.4777  44.4845  44.7794  44.7872  45.0482  45.0484
    47.8987  47.9177  48.8901  48.9095  50.1981  50.2118  50.7073  50.7213
    51.5917  51.6080  51.7634  51.7779  52.0392  52.0471  52.7116  52.7168
    53.2488  53.2629  53.2717  53.2891  53.8478  53.8753  54.1232  54.1247
    54.3155  54.3239

          k = 0.5000-0.3000-0.1000 (  4754 PWs)   bands (ev):

    32.1384  32.1497  34.8509  34.8620  37.1226  37.1329  38.9709  38.9805
    39.2322  39.2409  40.2001  40.2069  40.4790  40.4925  40.9911  40.9988
    42.1920  42.1930  42.6583  42.6716  42.9851  42.9890  43.9842  43.9884
    44.2158  44.2273  44.4777  44.4845  44.7794  44.7873  45.0482  45.0484
    47.8987  47.9177  48.8902  48.9095  50.1981  50.2118  50.7071  50.7212
    51.5917  51.6075  51.7635  51.7785  52.0391  52.0473  52.7117  52.7171
    53.2444  53.2626  53.2743  53.2906  53.8477  53.8751  54.1232  54.1247
    54.3155  54.3237

          k =-0.1000-0.5000 0.3000 (  4754 PWs)   bands (ev):

    32.1425  32.1456  34.8549  34.8579  37.1263  37.1291  38.9740  38.9771
    39.2358  39.2379  40.2025  40.2043  40.4838  40.4877  40.9939  40.9959
    42.1923  42.1927  42.6629  42.6668  42.9865  42.9877  43.9858  43.9869
    44.2198  44.2232  44.4801  44.4820  44.7822  44.7846  45.0483  45.0484
    47.9055  47.9108  48.8972  48.9026  50.2031  50.2067  50.7124  50.7162
    51.5974  51.6022  51.7687  51.7726  52.0421  52.0443  52.7136  52.7151
    53.2511  53.2600  53.2731  53.2871  53.8578  53.8656  54.1238  54.1243
    54.3188  54.3209

          k =-0.1000 0.5000-0.3000 (  4754 PWs)   bands (ev):

    32.1425  32.1456  34.8549  34.8579  37.1262  37.1291  38.9748  38.9772
    39.2351  39.2377  40.2026  40.2042  40.4837  40.4876  40.9940  40.9961
    42.1923  42.1927  42.6629  42.6668  42.9865  42.9877  43.9858  43.9870
    44.2198  44.2231  44.4801  44.4821  44.7821  44.7845  45.0482  45.0484
    47.9056  47.9108  48.8971  48.9025  50.2031  50.2068  50.7123  50.7161
    51.5967  51.6022  51.7694  51.7724  52.0423  52.0444  52.7134  52.7150
    53.2529  53.2612  53.2720  53.2863  53.8577  53.8655  54.1238  54.1243
    54.3187  54.3209

          k = 0.3000-0.5000 0.1000 (  4754 PWs)   bands (ev):

    32.1425  32.1456  34.8549  34.8579  37.1263  37.1291  38.9747  38.9773
    39.2353  39.2376  40.2024  40.2044  40.4836  40.4874  40.9940  40.9961
    42.1925  42.1928  42.6629  42.6668  42.9865  42.9877  43.9860  43.9871
    44.2196  44.2229  44.4801  44.4820  44.7823  44.7846  45.0482  45.0483
    47.9057  47.9108  48.8971  48.9025  50.2032  50.2067  50.7123  50.7162
    51.5973  51.6023  51.7687  51.7727  52.0421  52.0442  52.7135  52.7151
    53.2510  53.2604  53.2750  53.2859  53.8576  53.8655  54.1239  54.1242
    54.3186  54.3207

          k = 0.3000 0.5000-0.1000 (  4754 PWs)   bands (ev):

    32.1425  32.1456  34.8549  34.8579  37.1264  37.1291  38.9748  38.9771
    39.2349  39.2378  40.2029  40.2044  40.4836  40.4875  40.9938  40.9959
    42.1925  42.1928  42.6629  42.6667  42.9865  42.9876  43.9860  43.9870
    44.2196  44.2230  44.4800  44.4822  44.7822  44.7846  45.0482  45.0483
    47.9055  47.9107  48.8974  48.9026  50.2031  50.2068  50.7123  50.7161
    51.5969  51.6025  51.7692  51.7724  52.0422  52.0443  52.7134  52.7151
    53.2481  53.2565  53.2785  53.2886  53.8576  53.8656  54.1239  54.1243
    54.3187  54.3209

          k =-0.5000 0.1000 0.3000 (  4754 PWs)   bands (ev):

    32.1384  32.1497  34.8509  34.8620  37.1225  37.1328  38.9709  38.9800
    39.2322  39.2417  40.2004  40.2067  40.4789  40.4924  40.9909  40.9989
    42.1920  42.1930  42.6583  42.6715  42.9851  42.9890  43.9844  43.9884
    44.2156  44.2273  44.4777  44.4845  44.7795  44.7873  45.0481  45.0484
    47.8987  47.9177  48.8902  48.9094  50.1983  50.2118  50.7072  50.7212
    51.5914  51.6078  51.7634  51.7781  52.0393  52.0479  52.7118  52.7169
    53.2415  53.2598  53.2752  53.2953  53.8477  53.8751  54.1234  54.1246
    54.3156  54.3240

          k = 0.5000-0.1000 0.3000 (  4754 PWs)   bands (ev):

    32.1384  32.1497  34.8509  34.8620  37.1225  37.1328  38.9712  38.9805
    39.2321  39.2411  40.2000  40.2067  40.4790  40.4925  40.9911  40.9990
    42.1920  42.1930  42.6583  42.6715  42.9851  42.9890  43.9846  43.9884
    44.2156  44.2272  44.4777  44.4845  44.7795  44.7872  45.0481  45.0485
    47.8987  47.9177  48.8902  48.9094  50.1982  50.2117  50.7074  50.7212
    51.5916  51.6080  51.7633  51.7780  52.0392  52.0473  52.7118  52.7167
    53.2439  53.2622  53.2747  53.2917  53.8477  53.8753  54.1234  54.1248
    54.3155  54.3240

          k =-0.5000 0.1000 0.5000 (  4740 PWs)   bands (ev):

    33.2774  33.2864  33.2955  33.3067  37.9929  38.0007  38.0088  38.0186
    39.8140  39.8208  39.8276  39.8364  41.4512  41.4592  41.4599  41.4657
    41.4684  41.4758  41.4784  41.4864  43.8104  43.8149  43.8163  43.8203
    44.8953  44.8981  44.9005  44.9030  44.9054  44.9096  44.9122  44.9142
    48.7914  48.8068  48.8171  48.8201  48.8221  48.8356  48.8423  48.8443
    51.7303  51.7418  51.7471  51.7568  53.3619  53.3741  53.3805  53.3898
    53.5680  53.5715  53.5802  53.5826  53.5919  53.5971  53.6055  53.6183
    54.1918  54.1957

          k =-0.5000 0.5000 0.1000 (  4740 PWs)   bands (ev):

    33.2844  33.2855  33.2954  33.3006  37.9990  38.0000  38.0088  38.0135
    39.8193  39.8201  39.8276  39.8315  41.4504  41.4525  41.4594  41.4676
    41.4699  41.4797  41.4814  41.4844  43.8121  43.8140  43.8175  43.8183
    44.8949  44.8961  44.9013  44.9050  44.9055  44.9103  44.9107  44.9143
    48.8044  48.8091  48.8159  48.8191  48.8216  48.8283  48.8378  48.8435
    51.7354  51.7400  51.7493  51.7512  53.3673  53.3730  53.3821  53.3850
    53.5622  53.5729  53.5822  53.5827  53.5908  53.6020  53.6037  53.6175
    54.1932  54.1945

          k =-0.3000-0.3000 0.3000 (  4788 PWs)   bands (ev):

    31.5534  34.3141  34.3240  34.3316  36.7602  36.7698  36.7770  38.8458
    39.7427  39.7474  39.7508  41.7441  41.7478  41.7518  41.8634  41.8726
    41.8765  41.8776  41.8913  41.8998  43.7904  43.7970  43.7989  43.8015
    43.8040  43.8087  43.8114  43.8177  43.8228  44.8374  44.8382  44.8390
    48.4435  48.4507  48.4581  49.7958  49.8011  49.8053  51.4766  51.4797
    51.4822  51.4870  51.4881  51.4925  52.3551  52.3609  52.3694  52.3755
    52.3786  52.3876  52.4241  52.4287  52.4335  53.1018  54.7227  54.7271
    54.7325  55.3090

          k =-0.3000 0.3000-0.3000 (  4788 PWs)   bands (ev):

    31.5534  34.3129  34.3232  34.3335  36.7591  36.7690  36.7789  38.8459
    39.7422  39.7469  39.7516  41.7411  41.7477  41.7548  41.8610  41.8706
    41.8795  41.8837  41.8903  41.8961  43.7926  43.7946  43.7980  43.8001
    43.8020  43.8046  43.8126  43.8205  43.8275  44.8373  44.8382  44.8392
    48.4380  48.4507  48.4636  49.7951  49.8008  49.8064  51.4742  51.4806
    51.4829  51.4870  51.4897  51.4912  52.3524  52.3638  52.3680  52.3753
    52.3793  52.3889  52.4222  52.4288  52.4352  53.1018  54.7218  54.7273
    54.7328  55.3066

          k = 0.3000-0.3000-0.3000 (  4788 PWs)   bands (ev):

    31.5534  34.3116  34.3258  34.3323  36.7578  36.7715  36.7777  38.8458
    39.7417  39.7481  39.7511  41.7401  41.7477  41.7557  41.8627  41.8713
    41.8787  41.8833  41.8891  41.8962  43.7877  43.7934  43.7971  43.8006
    43.8033  43.8078  43.8120  43.8209  43.8294  44.8375  44.8380  44.8394
    48.4367  48.4508  48.4651  49.7944  49.8020  49.8055  51.4740  51.4786
    51.4810  51.4869  51.4908  51.4952  52.3534  52.3605  52.3687  52.3702
    52.3816  52.3887  52.4218  52.4282  52.4394  53.1028  54.7219  54.7261
    54.7332  55.3077

          k =-0.3000 0.3000 0.5000 (  4758 PWs)   bands (ev):

    32.7210  32.7312  35.3393  35.3496  35.3514  35.3597  37.6223  37.6316
    40.6676  40.6726  40.6743  40.6784  41.0134  41.0257  42.6923  42.6965
    42.7078  42.7145  42.7172  42.7190  42.7275  42.7296  43.1404  43.1423
    43.1521  43.1543  44.4873  44.4912  44.4918  44.4968  44.9298  44.9379
    48.2769  48.2888  50.2935  50.3084  50.3148  50.3248  50.3347  50.3432
    50.3461  50.3626  51.5220  51.5277  51.5390  51.5426  51.9437  51.9506
    51.9550  51.9623  53.2587  53.2811  53.5670  53.5723  53.5772  53.5815
    55.2163  55.2279

          k =-0.5000-0.3000 0.3000 (  4758 PWs)   bands (ev):

    32.7205  32.7318  35.3399  35.3468  35.3510  35.3625  37.6218  37.6322
    40.6678  40.6710  40.6741  40.6794  41.0131  41.0267  42.6907  42.7043
    42.7063  42.7094  42.7172  42.7207  42.7247  42.7307  43.1400  43.1417
    43.1524  43.1555  44.4857  44.4908  44.4936  44.4968  44.9293  44.9383
    48.2762  48.2895  50.2918  50.3108  50.3172  50.3228  50.3342  50.3400
    50.3511  50.3602  51.5206  51.5258  51.5389  51.5459  51.9431  51.9546
    51.9561  51.9576  53.2576  53.2822  53.5661  53.5699  53.5788  53.5839
    55.2157  55.2283

          k = 0.5000-0.3000-0.3000 (  4758 PWs)   bands (ev):

    32.7205  32.7318  35.3388  35.3474  35.3503  35.3636  37.6218  37.6321
    40.6668  40.6706  40.6731  40.6820  41.0131  41.0266  42.6932  42.6977
    42.7068  42.7102  42.7189  42.7203  42.7280  42.7288  43.1391  43.1418
    43.1506  43.1579  44.4874  44.4899  44.4925  44.4973  44.9293  44.9383
    48.2763  48.2896  50.2946  50.3071  50.3163  50.3246  50.3318  50.3424
    50.3483  50.3632  51.5089  51.5313  51.5364  51.5546  51.9441  51.9518
    51.9537  51.9621  53.2575  53.2823  53.5618  53.5732  53.5765  53.5857
    55.2164  55.2283

          k =-0.3000-0.5000 0.3000 (  4758 PWs)   bands (ev):

    32.7246  32.7276  35.3386  35.3462  35.3566  35.3588  37.6256  37.6284
    40.6657  40.6718  40.6760  40.6793  41.0177  41.0216  42.7010  42.7019
    42.7042  42.7048  42.7219  42.7221  42.7238  42.7243  43.1412  43.1477
    43.1495  43.1510  44.4873  44.4898  44.4938  44.4963  44.9325  44.9352
    48.2810  48.2846  50.3062  50.3115  50.3136  50.3173  50.3350  50.3406
    50.3496  50.3546  51.5165  51.5293  51.5350  51.5503  51.9512  51.9518
    51.9538  51.9546  53.2664  53.2736  53.5671  53.5709  53.5774  53.5824
    55.2203  55.2236

          k =-0.3000 0.5000-0.3000 (  4758 PWs)   bands (ev):

    32.7246  32.7277  35.3392  35.3442  35.3572  35.3596  37.6256  37.6284
    40.6677  40.6702  40.6766  40.6780  41.0177  41.0216  42.6944  42.7033
    42.7045  42.7099  42.7173  42.7221  42.7236  42.7292  43.1431  43.1466
    43.1481  43.1513  44.4874  44.4889  44.4941  44.4967  44.9325  44.9352
    48.2811  48.2846  50.3004  50.3098  50.3136  50.3174  50.3409  50.3449
    50.3481  50.3529  51.5256  51.5315  51.5353  51.5391  51.9468  51.9535
    51.9543  51.9567  53.2665  53.2737  53.5706  53.5746  53.5754  53.5776
    55.2206  55.2237

          k =-0.5000 0.3000 0.5000 (  4772 PWs)   bands (ev):

    33.8177  33.8267  33.8357  33.8469  36.2845  36.2931  36.3017  36.3124
    41.5381  41.5428  41.5482  41.5544  41.9602  41.9685  41.9690  41.9749
    41.9777  41.9851  41.9880  41.9959  43.6122  43.6140  43.6142  43.6157
    43.9850  43.9923  43.9938  43.9987  44.0013  44.0080  44.0111  44.0174
    49.7235  49.7382  49.7479  49.7514  49.7527  49.7631  49.7731  49.7741
    51.0296  51.0401  51.0421  51.0520  51.8917  51.9044  51.9079  51.9189
    52.4023  52.4115  52.4160  52.4213  52.4263  52.4324  52.4410  52.4466
    56.0395  56.0468

          k =-0.5000 0.5000 0.3000 (  4772 PWs)   bands (ev):

    33.8247  33.8257  33.8356  33.8408  36.2912  36.2923  36.3017  36.3067
    41.5419  41.5424  41.5480  41.5510  41.9595  41.9614  41.9684  41.9769
    41.9794  41.9893  41.9907  41.9942  43.6128  43.6135  43.6146  43.6150
    43.9848  43.9853  43.9927  44.0006  44.0027  44.0118  44.0127  44.0168
    49.7306  49.7383  49.7457  49.7510  49.7530  49.7601  49.7682  49.7770
    51.0334  51.0371  51.0452  51.0481  51.8963  51.9013  51.9114  51.9141
    52.4013  52.4125  52.4156  52.4209  52.4259  52.4319  52.4396  52.4497
    56.0465  56.0471

     the Fermi energy is    52.7070 ev

!    total energy              =   -1130.04140454 Ry
     Harris-Foulkes estimate   =   -1130.04140537 Ry
     estimated scf accuracy    <       0.00000025 Ry

     total all-electron energy =    -15406.610427 Ry

     The total energy is the sum of the following terms:

     one-electron contribution =     469.16813684 Ry
     hartree contribution      =       1.75083835 Ry
     xc contribution           =    -138.29041642 Ry
     ewald contribution        =    -326.84024986 Ry
     one-center paw contrib.   =   -1135.83362521 Ry
     smearing contrib. (-TS)   =       0.00391176 Ry

     convergence has been achieved in  39 iterations

     Forces acting on atoms (cartesian axes, Ry/au):

     atom    1 type  1   force =    -0.00336023   -0.00410246    0.00088062
     atom    2 type  1   force =    -0.00508994   -0.00153446    0.01283278
     atom    3 type  1   force =     0.01306223    0.00114999   -0.02098809
     atom    4 type  1   force =    -0.00670970    0.00269965   -0.02382582
     atom    5 type  1   force =    -0.01489525   -0.01311597    0.01670243
     atom    6 type  1   force =    -0.01072317    0.01131029   -0.00654266
     atom    7 type  1   force =    -0.01521395   -0.03170466    0.01300664
     atom    8 type  1   force =    -0.00606441    0.00966268   -0.00457554
     atom    9 type  1   force =     0.01951864    0.00506019   -0.00127671
     atom   10 type  1   force =    -0.00641806    0.00966042   -0.02770203
     atom   11 type  1   force =    -0.01018166   -0.01870181   -0.01287862
     atom   12 type  1   force =    -0.01565219   -0.00528419   -0.01020063
     atom   13 type  1   force =    -0.00490227   -0.01724897    0.00621728
     atom   14 type  1   force =    -0.01012827    0.01994061    0.01964780
     atom   15 type  1   force =    -0.01783656    0.01500034    0.01800458
     atom   16 type  1   force =     0.02458820    0.01188058    0.01484976
     atom   17 type  1   force =    -0.01752360   -0.00462724   -0.00126109
     atom   18 type  1   force =     0.01055606   -0.00343547    0.01465604
     atom   19 type  1   force =     0.02016209    0.01308231   -0.00414127
     atom   20 type  1   force =     0.00655862    0.02105866   -0.00964281
     atom   21 type  1   force =     0.00475866   -0.02254157    0.00985999
     atom   22 type  1   force =    -0.00222688    0.02356859    0.01246657
     atom   23 type  1   force =     0.01307009   -0.00927835   -0.01211507
     atom   24 type  1   force =     0.01430773    0.00468453    0.00423090
     atom   25 type  1   force =    -0.01153442   -0.00069613    0.00592746
     atom   26 type  1   force =     0.01153788   -0.00872180    0.00345231
     atom   27 type  1   force =    -0.00837246   -0.00759709    0.00315496
     atom   28 type  1   force =     0.00487706    0.00066596    0.00512382
     atom   29 type  1   force =     0.03900556   -0.01851585    0.00210700
     atom   30 type  1   force =    -0.00442955    0.00760988   -0.00077522
     atom   31 type  1   force =    -0.01047760   -0.00546710   -0.01696651
     atom   32 type  1   force =    -0.00026267    0.01553844   -0.01022886

     Total force =     0.128410     Total SCF correction =     0.000758


     Computing stress (Cartesian axis) and pressure

          total   stress  (Ry/bohr**3)                   (kbar)     P=59616.83
   0.40526592   0.00000013   0.00000096      59616.66      0.02      0.14
   0.00000013   0.40526796  -0.00000147          0.02  59616.96     -0.22
   0.00000096  -0.00000147   0.40526727          0.14     -0.22  59616.86


     Writing output data file fe_scf_fcc_2.save/
 
     init_run     :      2.60s CPU      2.79s WALL (       1 calls)
     electrons    :    162.09s CPU    168.82s WALL (       1 calls)
     forces       :      0.57s CPU      0.63s WALL (       1 calls)
     stress       :      0.95s CPU      0.97s WALL (       1 calls)

     Called by init_run:
     wfcinit      :      2.50s CPU      2.64s WALL (       1 calls)
     potinit      :      0.07s CPU      0.07s WALL (       1 calls)
     hinit0       :      0.04s CPU      0.07s WALL (       1 calls)

     Called by electrons:
     c_bands      :    144.16s CPU    149.58s WALL (      39 calls)
     sum_band     :     15.24s CPU     16.48s WALL (      39 calls)
     v_of_rho     :      0.09s CPU      0.10s WALL (      40 calls)
     newd         :      0.07s CPU      0.07s WALL (      40 calls)
     PAW_pot      :      2.50s CPU      2.54s WALL (      40 calls)
     mix_rho      :      0.05s CPU      0.06s WALL (      39 calls)

     Called by c_bands:
     init_us_2    :      1.71s CPU      1.77s WALL (    5103 calls)
     cegterg      :    138.15s CPU    143.43s WALL (    2457 calls)

     Called by sum_band:
     sum_band:bec :      0.26s CPU      0.27s WALL (    2457 calls)
     addusdens    :      0.04s CPU      0.05s WALL (      39 calls)

     Called by *egterg:
     h_psi        :     66.08s CPU     70.42s WALL (    9355 calls)
     s_psi        :      5.97s CPU      6.01s WALL (    9355 calls)
     g_psi        :      0.36s CPU      0.37s WALL (    6835 calls)
     cdiaghg      :     52.55s CPU     52.73s WALL (    9292 calls)

     Called by h_psi:
     h_psi:pot    :     65.75s CPU     70.08s WALL (    9355 calls)
     h_psi:calbec :      8.54s CPU      9.94s WALL (    9355 calls)
     vloc_psi     :     50.78s CPU     53.65s WALL (    9355 calls)
     add_vuspsi   :      6.37s CPU      6.44s WALL (    9355 calls)

     General routines
     calbec       :     11.98s CPU     14.09s WALL (   12127 calls)
     fft          :      0.10s CPU      0.14s WALL (     466 calls)
     ffts         :      0.01s CPU      0.01s WALL (      39 calls)
     fftw         :     57.62s CPU     60.82s WALL (  830086 calls)
 
     Parallel routines
     fft_scatt_xy :      4.36s CPU      4.60s WALL (  830591 calls)
     fft_scatt_yz :     35.22s CPU     37.34s WALL (  830591 calls)
 
     PWSCF        :  2m47.37s CPU     2m54.77s WALL

 
   This run was terminated on:  23:57:24  22Oct2019            

=------------------------------------------------------------------------------=
   JOB DONE.
=------------------------------------------------------------------------------=
