
     Program PWSCF v.6.3 starts on 24Oct2019 at  1:32:35 

     This program is part of the open-source Quantum ESPRESSO suite
     for quantum simulation of materials; please cite
         "P. Giannozzi et al., J. Phys.:Condens. Matter 21 395502 (2009);
         "P. Giannozzi et al., J. Phys.:Condens. Matter 29 465901 (2017);
          URL http://www.quantum-espresso.org", 
     in publications or presentations arising from this work. More details at
     http://www.quantum-espresso.org/quote

     Parallel version (MPI & OpenMP), running on      20 processor cores
     Number of MPI processes:                20
     Threads/MPI process:                     1

     MPI processes distributed on     1 nodes
     R & G space division:  proc/nbgrp/npool/nimage =      20
     Reading input from /rds/homes/b/bxp912/jobs/20191024_test1/wd/runpwscf/file_10250.in
Warning: card &IONS ignored
Warning: card ION_DYNAMICS = 'BFGS', ignored
Warning: card / ignored
Warning: card &CELL ignored
Warning: card CELL_DYNAMICS = 'BFGS', ignored
Warning: card CELL_FACTOR = 2.0, ignored
Warning: card PRESS = 0.0, ignored
Warning: card / ignored

     Current dimensions of program PWSCF are:
     Max number of different atomic species (ntypx) = 10
     Max number of k-points (npk) =  40000
     Max angular momentum in pseudopotentials (lmaxx) =  3
     Message from routine read_upf::
     Pseudo file /rds/homes/b/bxp912/pp/Al.pbe-nl-kjpaw_psl.1.0.0.UPF has been successfully fixed on the fly.
To avoid this message in the future you can permanently fix 
 your pseudo files following instructions given in: 
https://gitlab.com/QEF/q-e/blob/master/upftools/how_to_fix_upf.md
               file Al.pbe-nl-kjpaw_psl.1.0.0.UPF: wavefunction(s)  3S 3P renormalized

     Subspace diagonalization in iterative solution of the eigenvalue problem:
     a serial algorithm will be used

 
     Parallelization info
     --------------------
     sticks:   dense  smooth     PW     G-vecs:    dense   smooth      PW
     Min          52      52     20                 1262     1262     300
     Max          53      53     21                 1265     1265     303
     Sum        1041    1041    401                25269    25269    6031
 


     bravais-lattice index     =            0
     lattice parameter (alat)  =       8.0800  a.u.
     unit-cell volume          =     527.5141 (a.u.)^3
     number of atoms/cell      =           32
     number of atomic types    =            1
     number of electrons       =        96.00
     number of Kohn-Sham states=           58
     kinetic-energy cutoff     =      66.0000  Ry
     charge density cutoff     =     200.0000  Ry
     convergence threshold     =      1.0E-06
     mixing beta               =       0.1000
     number of iterations used =           10  TF        mixing
     Exchange-correlation      = SLA PW PBX PBC ( 1  4  3  4 0 0)

     celldm(1)=   8.080000  celldm(2)=   0.000000  celldm(3)=   0.000000
     celldm(4)=   0.000000  celldm(5)=   0.000000  celldm(6)=   0.000000

     crystal axes: (cart. coord. in units of alat)
               a(1) = (   1.000000   0.000000   0.000000 )  
               a(2) = (   0.000000   1.000000   0.000000 )  
               a(3) = (   0.000000   0.000000   1.000000 )  

     reciprocal axes: (cart. coord. in units 2 pi/alat)
               b(1) = (  1.000000  0.000000  0.000000 )  
               b(2) = (  0.000000  1.000000  0.000000 )  
               b(3) = (  0.000000  0.000000  1.000000 )  


     PseudoPot. # 1 for Al read from file:
     /rds/homes/b/bxp912/pp/Al.pbe-nl-kjpaw_psl.1.0.0.UPF
     MD5 check sum: 339dbea23cf3ab9a065ad45c0f9085d7
     Pseudo is Projector augmented-wave + core cor, Zval =  3.0
     Generated using "atomic" code by A. Dal Corso v.5.1
     Shape of augmentation charge: PSQ
     Using radial grid of 1135 points,  4 beta functions with: 
                l(1) =   0
                l(2) =   0
                l(3) =   1
                l(4) =   1
     Q(r) pseudized with 0 coefficients 


     atomic species   valence    mass     pseudopotential
        Al             3.00    26.98200     Al( 1.00)

     No symmetry found



   Cartesian axes

     site n.     atom                  positions (alat units)
         1           Al  tau(   1) = (  -0.0000618   0.0000180   0.0001286  )
         2           Al  tau(   2) = (   0.2501504   0.2496409   0.0001329  )
         3           Al  tau(   3) = (   0.2498245   0.0000576   0.2505585  )
         4           Al  tau(   4) = (  -0.0000378   0.2504134   0.2503472  )
         5           Al  tau(   5) = (   0.0004835   0.0004765   0.4997751  )
         6           Al  tau(   6) = (   0.2502257   0.2496836   0.5000068  )
         7           Al  tau(   7) = (   0.2500525   0.0002908   0.7497884  )
         8           Al  tau(   8) = (   0.0001038   0.2502148   0.7503971  )
         9           Al  tau(   9) = (   0.0004488   0.5002037  -0.0000292  )
        10           Al  tau(  10) = (   0.2502638   0.7503330   0.0007661  )
        11           Al  tau(  11) = (   0.2503574   0.5002057   0.2504745  )
        12           Al  tau(  12) = (   0.0000725   0.7500861   0.2500479  )
        13           Al  tau(  13) = (   0.0002082   0.5002952   0.5001871  )
        14           Al  tau(  14) = (   0.2499320   0.7501195   0.4997555  )
        15           Al  tau(  15) = (   0.2506361   0.4996019   0.7494255  )
        16           Al  tau(  16) = (  -0.0006199   0.7494434   0.7499870  )
        17           Al  tau(  17) = (   0.5003850  -0.0001898  -0.0000732  )
        18           Al  tau(  18) = (   0.7498343   0.2501778  -0.0004407  )
        19           Al  tau(  19) = (   0.7493109  -0.0001812   0.2501458  )
        20           Al  tau(  20) = (   0.4999530   0.2499270   0.2496819  )
        21           Al  tau(  21) = (   0.4998509   0.0005536   0.4999482  )
        22           Al  tau(  22) = (   0.7501292   0.2494251   0.4999098  )
        23           Al  tau(  23) = (   0.7500676  -0.0001298   0.7500485  )
        24           Al  tau(  24) = (   0.5000215   0.2497853   0.7499902  )
        25           Al  tau(  25) = (   0.4997214   0.5002185  -0.0004144  )
        26           Al  tau(  26) = (   0.7495697   0.7501849   0.0005172  )
        27           Al  tau(  27) = (   0.7501903   0.4996254   0.2498983  )
        28           Al  tau(  28) = (   0.5001659   0.7496046   0.2503955  )
        29           Al  tau(  29) = (   0.4993878   0.5001941   0.5000764  )
        30           Al  tau(  30) = (   0.7503133   0.7499759   0.4997253  )
        31           Al  tau(  31) = (   0.7499001   0.5000179   0.7502634  )
        32           Al  tau(  32) = (   0.5000268   0.7499029   0.7498445  )

     number of k points=   172  Marzari-Vanderbilt smearing, width (Ry)=  0.0020

     Number of k-points >= 100: set verbosity='high' to print them.

     Dense  grid:    25269 G-vectors     FFT dimensions: (  40,  40,  40)

     Estimated max dynamical RAM per process >      43.83 MB

     Estimated total dynamical RAM >     876.53 MB

     Initial potential from superposition of free atoms

     starting charge   95.92671, renormalised to   96.00000
     Starting wfcs are  128 randomized atomic wfcs
     Checking if some PAW data can be deallocated... 

     total cpu time spent up to now is        6.6 secs

     Self-consistent Calculation

     iteration #  1     ecut=    66.00 Ry     beta= 0.10
     Davidson diagonalization with overlap
     ethr =  1.00E-02,  avg # of iterations =  5.2

     total cpu time spent up to now is       24.6 secs

     total energy              =   -1133.16841511 Ry
     Harris-Foulkes estimate   =   -1134.39989485 Ry
     estimated scf accuracy    <       1.41903560 Ry

     iteration #  2     ecut=    66.00 Ry     beta= 0.10
     Davidson diagonalization with overlap
     ethr =  1.48E-03,  avg # of iterations =  3.8

     total cpu time spent up to now is       35.0 secs

     total energy              =   -1129.54313648 Ry
     Harris-Foulkes estimate   =   -1133.27818238 Ry
     estimated scf accuracy    <       1.23012512 Ry

     iteration #  3     ecut=    66.00 Ry     beta= 0.10
     Davidson diagonalization with overlap
     ethr =  1.28E-03,  avg # of iterations =  4.2

     total cpu time spent up to now is       49.7 secs

     total energy              =   -1130.09005848 Ry
     Harris-Foulkes estimate   =   -1130.49185741 Ry
     estimated scf accuracy    <       0.19358175 Ry

     iteration #  4     ecut=    66.00 Ry     beta= 0.10
     Davidson diagonalization with overlap
     ethr =  2.02E-04,  avg # of iterations =  2.7

     total cpu time spent up to now is       58.7 secs

     total energy              =   -1130.04857888 Ry
     Harris-Foulkes estimate   =   -1130.10553237 Ry
     estimated scf accuracy    <       0.12441789 Ry

     iteration #  5     ecut=    66.00 Ry     beta= 0.10
     Davidson diagonalization with overlap
     ethr =  1.30E-04,  avg # of iterations =  3.5

     total cpu time spent up to now is       70.9 secs

     total energy              =   -1130.02979938 Ry
     Harris-Foulkes estimate   =   -1130.08944332 Ry
     estimated scf accuracy    <       0.01248040 Ry

     iteration #  6     ecut=    66.00 Ry     beta= 0.10
     Davidson diagonalization with overlap
     c_bands:  1 eigenvalues not converged
     c_bands:  3 eigenvalues not converged
     c_bands:  3 eigenvalues not converged
     c_bands:  1 eigenvalues not converged
     c_bands:  2 eigenvalues not converged
     c_bands:  2 eigenvalues not converged
     ethr =  1.30E-05,  avg # of iterations =  5.3

     total cpu time spent up to now is       85.3 secs

     total energy              =   -1130.03776564 Ry
     Harris-Foulkes estimate   =   -1130.03846730 Ry
     estimated scf accuracy    <       0.00502615 Ry

     iteration #  7     ecut=    66.00 Ry     beta= 0.10
     Davidson diagonalization with overlap
     c_bands:  1 eigenvalues not converged
     c_bands:  3 eigenvalues not converged
     ethr =  5.24E-06,  avg # of iterations =  4.1

     total cpu time spent up to now is       96.1 secs

     total energy              =   -1130.03903101 Ry
     Harris-Foulkes estimate   =   -1130.04992712 Ry
     estimated scf accuracy    <       0.00411828 Ry

     iteration #  8     ecut=    66.00 Ry     beta= 0.10
     Davidson diagonalization with overlap
     ethr =  4.29E-06,  avg # of iterations =  3.1

     total cpu time spent up to now is      105.6 secs

     total energy              =   -1130.03925189 Ry
     Harris-Foulkes estimate   =   -1130.04062346 Ry
     estimated scf accuracy    <       0.00116494 Ry

     iteration #  9     ecut=    66.00 Ry     beta= 0.10
     Davidson diagonalization with overlap
     c_bands:  1 eigenvalues not converged
     c_bands:  2 eigenvalues not converged
     c_bands:  1 eigenvalues not converged
     c_bands:  1 eigenvalues not converged
     ethr =  1.21E-06,  avg # of iterations =  6.0

     total cpu time spent up to now is      119.4 secs

     total energy              =   -1130.04670594 Ry
     Harris-Foulkes estimate   =   -1130.04655689 Ry
     estimated scf accuracy    <       0.00034173 Ry

     iteration # 10     ecut=    66.00 Ry     beta= 0.10
     Davidson diagonalization with overlap
     c_bands:  2 eigenvalues not converged
     c_bands:  2 eigenvalues not converged
     ethr =  3.56E-07,  avg # of iterations =  4.5

     total cpu time spent up to now is      130.8 secs

     total energy              =   -1130.04408348 Ry
     Harris-Foulkes estimate   =   -1130.04673880 Ry
     estimated scf accuracy    <       0.00025447 Ry

     iteration # 11     ecut=    66.00 Ry     beta= 0.10
     Davidson diagonalization with overlap
     ethr =  2.65E-07,  avg # of iterations =  4.5

     total cpu time spent up to now is      146.3 secs

     total energy              =   -1130.04346660 Ry
     Harris-Foulkes estimate   =   -1130.04419346 Ry
     estimated scf accuracy    <       0.00015298 Ry

     iteration # 12     ecut=    66.00 Ry     beta= 0.10
     Davidson diagonalization with overlap
     ethr =  1.59E-07,  avg # of iterations =  4.7

     total cpu time spent up to now is      162.8 secs

     total energy              =   -1130.04354789 Ry
     Harris-Foulkes estimate   =   -1130.04354564 Ry
     estimated scf accuracy    <       0.00037904 Ry

     iteration # 13     ecut=    66.00 Ry     beta= 0.10
     Davidson diagonalization with overlap
     ethr =  1.59E-07,  avg # of iterations =  1.0

     total cpu time spent up to now is      169.5 secs

     total energy              =   -1130.04350834 Ry
     Harris-Foulkes estimate   =   -1130.04354884 Ry
     estimated scf accuracy    <       0.00038655 Ry

     iteration # 14     ecut=    66.00 Ry     beta= 0.10
     Davidson diagonalization with overlap
     ethr =  1.59E-07,  avg # of iterations =  1.2

     total cpu time spent up to now is      176.4 secs

     total energy              =   -1130.04351937 Ry
     Harris-Foulkes estimate   =   -1130.04351591 Ry
     estimated scf accuracy    <       0.00014372 Ry

     iteration # 15     ecut=    66.00 Ry     beta= 0.10
     Davidson diagonalization with overlap
     ethr =  1.50E-07,  avg # of iterations =  1.0

     total cpu time spent up to now is      183.2 secs

     total energy              =   -1130.04351911 Ry
     Harris-Foulkes estimate   =   -1130.04352037 Ry
     estimated scf accuracy    <       0.00014027 Ry

     iteration # 16     ecut=    66.00 Ry     beta= 0.10
     Davidson diagonalization with overlap
     ethr =  1.46E-07,  avg # of iterations =  1.0

     total cpu time spent up to now is      189.9 secs

     total energy              =   -1130.04352132 Ry
     Harris-Foulkes estimate   =   -1130.04351986 Ry
     estimated scf accuracy    <       0.00010688 Ry

     iteration # 17     ecut=    66.00 Ry     beta= 0.10
     Davidson diagonalization with overlap
     ethr =  1.11E-07,  avg # of iterations =  1.0

     total cpu time spent up to now is      196.6 secs

     total energy              =   -1130.04349754 Ry
     Harris-Foulkes estimate   =   -1130.04352183 Ry
     estimated scf accuracy    <       0.00010442 Ry

     iteration # 18     ecut=    66.00 Ry     beta= 0.10
     Davidson diagonalization with overlap
     ethr =  1.09E-07,  avg # of iterations =  2.6

     total cpu time spent up to now is      205.1 secs

     total energy              =   -1130.04350527 Ry
     Harris-Foulkes estimate   =   -1130.04350560 Ry
     estimated scf accuracy    <       0.00000440 Ry

     iteration # 19     ecut=    66.00 Ry     beta= 0.10
     Davidson diagonalization with overlap
     ethr =  4.59E-09,  avg # of iterations =  5.6

     total cpu time spent up to now is      223.0 secs

     total energy              =   -1130.04350938 Ry
     Harris-Foulkes estimate   =   -1130.04350964 Ry
     estimated scf accuracy    <       0.00001502 Ry

     iteration # 20     ecut=    66.00 Ry     beta= 0.10
     Davidson diagonalization with overlap
     ethr =  4.59E-09,  avg # of iterations =  1.0

     total cpu time spent up to now is      229.7 secs

     total energy              =   -1130.04350992 Ry
     Harris-Foulkes estimate   =   -1130.04350942 Ry
     estimated scf accuracy    <       0.00001299 Ry

     iteration # 21     ecut=    66.00 Ry     beta= 0.10
     Davidson diagonalization with overlap
     ethr =  4.59E-09,  avg # of iterations =  1.1

     total cpu time spent up to now is      236.5 secs

     total energy              =   -1130.04350885 Ry
     Harris-Foulkes estimate   =   -1130.04351011 Ry
     estimated scf accuracy    <       0.00001975 Ry

     iteration # 22     ecut=    66.00 Ry     beta= 0.10
     Davidson diagonalization with overlap
     ethr =  4.59E-09,  avg # of iterations =  1.0

     total cpu time spent up to now is      243.3 secs

     total energy              =   -1130.04350845 Ry
     Harris-Foulkes estimate   =   -1130.04350908 Ry
     estimated scf accuracy    <       0.00001103 Ry

     iteration # 23     ecut=    66.00 Ry     beta= 0.10
     Davidson diagonalization with overlap
     ethr =  4.59E-09,  avg # of iterations =  1.0

     total cpu time spent up to now is      250.0 secs

     total energy              =   -1130.04350861 Ry
     Harris-Foulkes estimate   =   -1130.04350854 Ry
     estimated scf accuracy    <       0.00000701 Ry

     iteration # 24     ecut=    66.00 Ry     beta= 0.10
     Davidson diagonalization with overlap
     ethr =  4.59E-09,  avg # of iterations =  1.0

     total cpu time spent up to now is      256.7 secs

     total energy              =   -1130.04350744 Ry
     Harris-Foulkes estimate   =   -1130.04350865 Ry
     estimated scf accuracy    <       0.00000578 Ry

     iteration # 25     ecut=    66.00 Ry     beta= 0.10
     Davidson diagonalization with overlap
     ethr =  4.59E-09,  avg # of iterations =  3.7

     total cpu time spent up to now is      267.6 secs

     End of self-consistent calculation

     Number of k-points >= 100: set verbosity='high' to print the bands.

     the Fermi energy is    52.7075 ev

!    total energy              =   -1130.04350797 Ry
     Harris-Foulkes estimate   =   -1130.04350827 Ry
     estimated scf accuracy    <       0.00000054 Ry

     total all-electron energy =    -15406.612530 Ry

     The total energy is the sum of the following terms:

     one-electron contribution =     469.14817398 Ry
     hartree contribution      =       1.75476433 Ry
     xc contribution           =    -138.28955965 Ry
     ewald contribution        =    -326.84024986 Ry
     one-center paw contrib.   =   -1135.81650209 Ry
     smearing contrib. (-TS)   =      -0.00013467 Ry

     convergence has been achieved in  25 iterations

     Forces acting on atoms (cartesian axes, Ry/au):

     atom    1 type  1   force =    -0.00408772   -0.00395304    0.00085930
     atom    2 type  1   force =    -0.00497926   -0.00240250    0.01316719
     atom    3 type  1   force =     0.01303326    0.00116545   -0.02019716
     atom    4 type  1   force =    -0.00716823    0.00331667   -0.02347247
     atom    5 type  1   force =    -0.01396860   -0.01279898    0.01633396
     atom    6 type  1   force =    -0.01080745    0.01130045   -0.00644477
     atom    7 type  1   force =    -0.01517228   -0.03178397    0.01268404
     atom    8 type  1   force =    -0.00571319    0.01003197   -0.00394419
     atom    9 type  1   force =     0.02040868    0.00569717   -0.00152471
     atom   10 type  1   force =    -0.00615909    0.00991230   -0.02716246
     atom   11 type  1   force =    -0.00994685   -0.01848823   -0.01222571
     atom   12 type  1   force =    -0.01557693   -0.00514297   -0.01088007
     atom   13 type  1   force =    -0.00421279   -0.01715759    0.00670994
     atom   14 type  1   force =    -0.01071145    0.02068699    0.01892620
     atom   15 type  1   force =    -0.01790910    0.01396847    0.01711108
     atom   16 type  1   force =     0.02368120    0.01075939    0.01473286
     atom   17 type  1   force =    -0.01724444   -0.00471514   -0.00133421
     atom   18 type  1   force =     0.01059283   -0.00331852    0.01405581
     atom   19 type  1   force =     0.01950953    0.01252933   -0.00448959
     atom   20 type  1   force =     0.00599727    0.02096201   -0.01071091
     atom   21 type  1   force =     0.00433595   -0.02199969    0.01010667
     atom   22 type  1   force =    -0.00212156    0.02280883    0.01285703
     atom   23 type  1   force =     0.01372333   -0.00929994   -0.01218913
     atom   24 type  1   force =     0.01470499    0.00506607    0.00413919
     atom   25 type  1   force =    -0.01178217   -0.00023846    0.00506511
     atom   26 type  1   force =     0.01129748   -0.00842604    0.00433904
     atom   27 type  1   force =    -0.00794017   -0.00810938    0.00281741
     atom   28 type  1   force =     0.00534921   -0.00007536    0.00592531
     atom   29 type  1   force =     0.03828885   -0.01859945    0.00233370
     atom   30 type  1   force =    -0.00390326    0.00783613   -0.00121299
     atom   31 type  1   force =    -0.01126818   -0.00539267   -0.01637112
     atom   32 type  1   force =    -0.00024985    0.01586069   -0.01000437

     Total force =     0.127185     Total SCF correction =     0.001213


     Computing stress (Cartesian axis) and pressure

          total   stress  (Ry/bohr**3)                   (kbar)     P=59600.32
   0.40515444   0.00000063  -0.00000150      59600.27      0.09     -0.22
   0.00000063   0.40515355   0.00000323          0.09  59600.13      0.48
  -0.00000150   0.00000323   0.40515646         -0.22      0.48  59600.56


     Writing output data file fe_scf_fcc_2.save/
 
     init_run     :      5.73s CPU      6.10s WALL (       1 calls)
     electrons    :    250.58s CPU    261.08s WALL (       1 calls)
     forces       :      1.11s CPU      1.24s WALL (       1 calls)
     stress       :      2.11s CPU      2.14s WALL (       1 calls)

     Called by init_run:
     wfcinit      :      5.61s CPU      5.94s WALL (       1 calls)
     potinit      :      0.06s CPU      0.07s WALL (       1 calls)
     hinit0       :      0.05s CPU      0.07s WALL (       1 calls)

     Called by electrons:
     c_bands      :    226.34s CPU    234.96s WALL (      25 calls)
     sum_band     :     22.73s CPU     24.55s WALL (      25 calls)
     v_of_rho     :      0.06s CPU      0.08s WALL (      26 calls)
     newd         :      0.06s CPU      0.06s WALL (      26 calls)
     PAW_pot      :      1.41s CPU      1.42s WALL (      26 calls)
     mix_rho      :      0.03s CPU      0.04s WALL (      25 calls)

     Called by c_bands:
     init_us_2    :      1.71s CPU      1.77s WALL (    9116 calls)
     cegterg      :    218.13s CPU    226.55s WALL (    4300 calls)

     Called by sum_band:
     sum_band:bec :      0.32s CPU      0.32s WALL (    4300 calls)
     addusdens    :      0.02s CPU      0.02s WALL (      25 calls)

     Called by *egterg:
     h_psi        :    105.05s CPU    111.74s WALL (   17152 calls)
     s_psi        :      6.69s CPU      6.78s WALL (   17152 calls)
     g_psi        :      0.35s CPU      0.35s WALL (   12680 calls)
     cdiaghg      :     90.60s CPU     90.98s WALL (   16980 calls)

     Called by h_psi:
     h_psi:pot    :    104.71s CPU    111.39s WALL (   17152 calls)
     h_psi:calbec :     10.40s CPU     12.79s WALL (   17152 calls)
     vloc_psi     :     87.16s CPU     91.28s WALL (   17152 calls)
     add_vuspsi   :      7.06s CPU      7.25s WALL (   17152 calls)

     General routines
     calbec       :     14.99s CPU     18.49s WALL (   22312 calls)
     fft          :      0.10s CPU      0.15s WALL (     312 calls)
     ffts         :      0.01s CPU      0.01s WALL (      25 calls)
     fftw         :     98.78s CPU    103.44s WALL ( 1504222 calls)
 
     Parallel routines
     fft_scatt_xy :      7.08s CPU      7.42s WALL ( 1504559 calls)
     fft_scatt_yz :     65.83s CPU     69.00s WALL ( 1504559 calls)
 
     PWSCF        :  4m22.27s CPU     4m55.13s WALL

 
   This run was terminated on:   1:37:30  24Oct2019            

=------------------------------------------------------------------------------=
   JOB DONE.
=------------------------------------------------------------------------------=
