
     Program PWSCF v.6.3 starts on 23Oct2019 at  0:22:54 

     This program is part of the open-source Quantum ESPRESSO suite
     for quantum simulation of materials; please cite
         "P. Giannozzi et al., J. Phys.:Condens. Matter 21 395502 (2009);
         "P. Giannozzi et al., J. Phys.:Condens. Matter 29 465901 (2017);
          URL http://www.quantum-espresso.org", 
     in publications or presentations arising from this work. More details at
     http://www.quantum-espresso.org/quote

     Parallel version (MPI & OpenMP), running on      20 processor cores
     Number of MPI processes:                20
     Threads/MPI process:                     1

     MPI processes distributed on     1 nodes
     R & G space division:  proc/nbgrp/npool/nimage =      20
     Reading input from /rds/homes/b/bxp912/jobs/20191022_test2/wd/runpwscf/file_10252.in
Warning: card &IONS ignored
Warning: card ION_DYNAMICS = 'BFGS', ignored
Warning: card / ignored
Warning: card &CELL ignored
Warning: card CELL_DYNAMICS = 'BFGS', ignored
Warning: card CELL_FACTOR = 2.0, ignored
Warning: card PRESS = 0.0, ignored
Warning: card / ignored

     Current dimensions of program PWSCF are:
     Max number of different atomic species (ntypx) = 10
     Max number of k-points (npk) =  40000
     Max angular momentum in pseudopotentials (lmaxx) =  3
     Message from routine read_upf::
     Pseudo file /rds/homes/b/bxp912/pp/Al.pbe-nl-kjpaw_psl.1.0.0.UPF has been successfully fixed on the fly.
To avoid this message in the future you can permanently fix 
 your pseudo files following instructions given in: 
https://gitlab.com/QEF/q-e/blob/master/upftools/how_to_fix_upf.md
               file Al.pbe-nl-kjpaw_psl.1.0.0.UPF: wavefunction(s)  3S 3P renormalized

     Subspace diagonalization in iterative solution of the eigenvalue problem:
     a serial algorithm will be used

 
     Parallelization info
     --------------------
     sticks:   dense  smooth     PW     G-vecs:    dense   smooth      PW
     Min          52      52     20                 1262     1262     300
     Max          53      53     21                 1265     1265     303
     Sum        1041    1041    401                25269    25269    6031
 


     bravais-lattice index     =            0
     lattice parameter (alat)  =       8.0800  a.u.
     unit-cell volume          =     527.5141 (a.u.)^3
     number of atoms/cell      =           32
     number of atomic types    =            1
     number of electrons       =        96.00
     number of Kohn-Sham states=           58
     kinetic-energy cutoff     =      66.0000  Ry
     charge density cutoff     =     200.0000  Ry
     convergence threshold     =      1.0E-06
     mixing beta               =       0.1000
     number of iterations used =           10  TF        mixing
     Exchange-correlation      = SLA PW PBX PBC ( 1  4  3  4 0 0)

     celldm(1)=   8.080000  celldm(2)=   0.000000  celldm(3)=   0.000000
     celldm(4)=   0.000000  celldm(5)=   0.000000  celldm(6)=   0.000000

     crystal axes: (cart. coord. in units of alat)
               a(1) = (   1.000000   0.000000   0.000000 )  
               a(2) = (   0.000000   1.000000   0.000000 )  
               a(3) = (   0.000000   0.000000   1.000000 )  

     reciprocal axes: (cart. coord. in units 2 pi/alat)
               b(1) = (  1.000000  0.000000  0.000000 )  
               b(2) = (  0.000000  1.000000  0.000000 )  
               b(3) = (  0.000000  0.000000  1.000000 )  


     PseudoPot. # 1 for Al read from file:
     /rds/homes/b/bxp912/pp/Al.pbe-nl-kjpaw_psl.1.0.0.UPF
     MD5 check sum: 339dbea23cf3ab9a065ad45c0f9085d7
     Pseudo is Projector augmented-wave + core cor, Zval =  3.0
     Generated using "atomic" code by A. Dal Corso v.5.1
     Shape of augmentation charge: PSQ
     Using radial grid of 1135 points,  4 beta functions with: 
                l(1) =   0
                l(2) =   0
                l(3) =   1
                l(4) =   1
     Q(r) pseudized with 0 coefficients 


     atomic species   valence    mass     pseudopotential
        Al             3.00    26.98200     Al( 1.00)

     No symmetry found



   Cartesian axes

     site n.     atom                  positions (alat units)
         1           Al  tau(   1) = (  -0.0000618   0.0000180   0.0001286  )
         2           Al  tau(   2) = (   0.2501504   0.2496409   0.0001329  )
         3           Al  tau(   3) = (   0.2498245   0.0000576   0.2505585  )
         4           Al  tau(   4) = (  -0.0000378   0.2504134   0.2503472  )
         5           Al  tau(   5) = (   0.0004835   0.0004765   0.4997751  )
         6           Al  tau(   6) = (   0.2502257   0.2496836   0.5000068  )
         7           Al  tau(   7) = (   0.2500525   0.0002908   0.7497884  )
         8           Al  tau(   8) = (   0.0001038   0.2502148   0.7503971  )
         9           Al  tau(   9) = (   0.0004488   0.5002037  -0.0000292  )
        10           Al  tau(  10) = (   0.2502638   0.7503330   0.0007661  )
        11           Al  tau(  11) = (   0.2503574   0.5002057   0.2504745  )
        12           Al  tau(  12) = (   0.0000725   0.7500861   0.2500479  )
        13           Al  tau(  13) = (   0.0002082   0.5002952   0.5001871  )
        14           Al  tau(  14) = (   0.2499320   0.7501195   0.4997555  )
        15           Al  tau(  15) = (   0.2506361   0.4996019   0.7494255  )
        16           Al  tau(  16) = (  -0.0006199   0.7494434   0.7499870  )
        17           Al  tau(  17) = (   0.5003850  -0.0001898  -0.0000732  )
        18           Al  tau(  18) = (   0.7498343   0.2501778  -0.0004407  )
        19           Al  tau(  19) = (   0.7493109  -0.0001812   0.2501458  )
        20           Al  tau(  20) = (   0.4999530   0.2499270   0.2496819  )
        21           Al  tau(  21) = (   0.4998509   0.0005536   0.4999482  )
        22           Al  tau(  22) = (   0.7501292   0.2494251   0.4999098  )
        23           Al  tau(  23) = (   0.7500676  -0.0001298   0.7500485  )
        24           Al  tau(  24) = (   0.5000215   0.2497853   0.7499902  )
        25           Al  tau(  25) = (   0.4997214   0.5002185  -0.0004144  )
        26           Al  tau(  26) = (   0.7495697   0.7501849   0.0005172  )
        27           Al  tau(  27) = (   0.7501903   0.4996254   0.2498983  )
        28           Al  tau(  28) = (   0.5001659   0.7496046   0.2503955  )
        29           Al  tau(  29) = (   0.4993878   0.5001941   0.5000764  )
        30           Al  tau(  30) = (   0.7503133   0.7499759   0.4997253  )
        31           Al  tau(  31) = (   0.7499001   0.5000179   0.7502634  )
        32           Al  tau(  32) = (   0.5000268   0.7499029   0.7498445  )

     number of k points=   172  Marzari-Vanderbilt smearing, width (Ry)=  0.0100

     Number of k-points >= 100: set verbosity='high' to print them.

     Dense  grid:    25269 G-vectors     FFT dimensions: (  40,  40,  40)

     Estimated max dynamical RAM per process >      43.83 MB

     Estimated total dynamical RAM >     876.53 MB

     Initial potential from superposition of free atoms

     starting charge   95.92671, renormalised to   96.00000
     Starting wfcs are  128 randomized atomic wfcs
     Checking if some PAW data can be deallocated... 

     total cpu time spent up to now is        8.0 secs

     Self-consistent Calculation

     iteration #  1     ecut=    66.00 Ry     beta= 0.10
     Davidson diagonalization with overlap
     ethr =  1.00E-02,  avg # of iterations =  5.2

     total cpu time spent up to now is       29.5 secs

     total energy              =   -1133.16734481 Ry
     Harris-Foulkes estimate   =   -1134.40026633 Ry
     estimated scf accuracy    <       1.41797689 Ry

     iteration #  2     ecut=    66.00 Ry     beta= 0.10
     Davidson diagonalization with overlap
     ethr =  1.48E-03,  avg # of iterations =  3.9

     total cpu time spent up to now is       41.8 secs

     total energy              =   -1129.56038518 Ry
     Harris-Foulkes estimate   =   -1133.28238717 Ry
     estimated scf accuracy    <       1.23033874 Ry

     iteration #  3     ecut=    66.00 Ry     beta= 0.10
     Davidson diagonalization with overlap
     ethr =  1.28E-03,  avg # of iterations =  4.2

     total cpu time spent up to now is       59.2 secs

     total energy              =   -1130.09337611 Ry
     Harris-Foulkes estimate   =   -1130.52266087 Ry
     estimated scf accuracy    <       0.19689928 Ry

     iteration #  4     ecut=    66.00 Ry     beta= 0.10
     Davidson diagonalization with overlap
     ethr =  2.05E-04,  avg # of iterations =  2.7

     total cpu time spent up to now is       70.0 secs

     total energy              =   -1130.06596072 Ry
     Harris-Foulkes estimate   =   -1130.10956180 Ry
     estimated scf accuracy    <       0.12424072 Ry

     iteration #  5     ecut=    66.00 Ry     beta= 0.10
     Davidson diagonalization with overlap
     ethr =  1.29E-04,  avg # of iterations =  3.4

     total cpu time spent up to now is       84.9 secs

     total energy              =   -1130.03499471 Ry
     Harris-Foulkes estimate   =   -1130.11322871 Ry
     estimated scf accuracy    <       0.01744690 Ry

     iteration #  6     ecut=    66.00 Ry     beta= 0.10
     Davidson diagonalization with overlap
     c_bands:  1 eigenvalues not converged
     c_bands:  3 eigenvalues not converged
     ethr =  1.82E-05,  avg # of iterations =  3.9

     total cpu time spent up to now is       98.4 secs

     total energy              =   -1130.04218364 Ry
     Harris-Foulkes estimate   =   -1130.04084384 Ry
     estimated scf accuracy    <       0.00610831 Ry

     iteration #  7     ecut=    66.00 Ry     beta= 0.10
     Davidson diagonalization with overlap
     c_bands:  2 eigenvalues not converged
     c_bands:  1 eigenvalues not converged
     ethr =  6.36E-06,  avg # of iterations =  5.6

     total cpu time spent up to now is      113.8 secs

     total energy              =   -1130.04257329 Ry
     Harris-Foulkes estimate   =   -1130.06188722 Ry
     estimated scf accuracy    <       0.00513291 Ry

     iteration #  8     ecut=    66.00 Ry     beta= 0.10
     Davidson diagonalization with overlap
     c_bands:  1 eigenvalues not converged
     ethr =  5.35E-06,  avg # of iterations =  3.6

     total cpu time spent up to now is      127.2 secs

     total energy              =   -1130.04442119 Ry
     Harris-Foulkes estimate   =   -1130.04351523 Ry
     estimated scf accuracy    <       0.00108517 Ry

     iteration #  9     ecut=    66.00 Ry     beta= 0.10
     Davidson diagonalization with overlap
     c_bands:  2 eigenvalues not converged
     c_bands:  2 eigenvalues not converged
     ethr =  1.13E-06,  avg # of iterations =  5.9

     total cpu time spent up to now is      165.2 secs

     total energy              =   -1130.04772747 Ry
     Harris-Foulkes estimate   =   -1130.04808344 Ry
     estimated scf accuracy    <       0.00057787 Ry

     iteration # 10     ecut=    66.00 Ry     beta= 0.10
     Davidson diagonalization with overlap
     c_bands:  1 eigenvalues not converged
     c_bands:  1 eigenvalues not converged
     ethr =  6.02E-07,  avg # of iterations =  1.6

     total cpu time spent up to now is      174.1 secs

     total energy              =   -1130.04768097 Ry
     Harris-Foulkes estimate   =   -1130.04774096 Ry
     estimated scf accuracy    <       0.00057527 Ry

     iteration # 11     ecut=    66.00 Ry     beta= 0.10
     Davidson diagonalization with overlap
     ethr =  5.99E-07,  avg # of iterations =  1.1

     total cpu time spent up to now is      182.2 secs

     total energy              =   -1130.04400215 Ry
     Harris-Foulkes estimate   =   -1130.04769972 Ry
     estimated scf accuracy    <       0.00054843 Ry

     iteration # 12     ecut=    66.00 Ry     beta= 0.10
     Davidson diagonalization with overlap
     ethr =  5.71E-07,  avg # of iterations =  5.2

     total cpu time spent up to now is      203.6 secs

     total energy              =   -1130.04435902 Ry
     Harris-Foulkes estimate   =   -1130.04435693 Ry
     estimated scf accuracy    <       0.00007565 Ry

     iteration # 13     ecut=    66.00 Ry     beta= 0.10
     Davidson diagonalization with overlap
     ethr =  7.88E-08,  avg # of iterations =  2.0

     total cpu time spent up to now is      213.1 secs

     total energy              =   -1130.04435325 Ry
     Harris-Foulkes estimate   =   -1130.04436171 Ry
     estimated scf accuracy    <       0.00008299 Ry

     iteration # 14     ecut=    66.00 Ry     beta= 0.10
     Davidson diagonalization with overlap
     ethr =  7.88E-08,  avg # of iterations =  1.0

     total cpu time spent up to now is      221.1 secs

     total energy              =   -1130.04434861 Ry
     Harris-Foulkes estimate   =   -1130.04435433 Ry
     estimated scf accuracy    <       0.00005822 Ry

     iteration # 15     ecut=    66.00 Ry     beta= 0.10
     Davidson diagonalization with overlap
     ethr =  6.06E-08,  avg # of iterations =  1.0

     total cpu time spent up to now is      229.0 secs

     total energy              =   -1130.04435028 Ry
     Harris-Foulkes estimate   =   -1130.04435117 Ry
     estimated scf accuracy    <       0.00000463 Ry

     iteration # 16     ecut=    66.00 Ry     beta= 0.10
     Davidson diagonalization with overlap
     ethr =  4.83E-09,  avg # of iterations =  4.8

     total cpu time spent up to now is      245.7 secs

     total energy              =   -1130.04435360 Ry
     Harris-Foulkes estimate   =   -1130.04435145 Ry
     estimated scf accuracy    <       0.00000122 Ry

     iteration # 17     ecut=    66.00 Ry     beta= 0.10
     Davidson diagonalization with overlap
     ethr =  1.27E-09,  avg # of iterations =  3.8

     total cpu time spent up to now is      261.1 secs

     total energy              =   -1130.04434798 Ry
     Harris-Foulkes estimate   =   -1130.04435402 Ry
     estimated scf accuracy    <       0.00000355 Ry

     iteration # 18     ecut=    66.00 Ry     beta= 0.10
     Davidson diagonalization with overlap
     ethr =  1.27E-09,  avg # of iterations =  3.8

     total cpu time spent up to now is      276.9 secs

     End of self-consistent calculation

     Number of k-points >= 100: set verbosity='high' to print the bands.

     the Fermi energy is    52.7095 ev

!    total energy              =   -1130.04434759 Ry
     Harris-Foulkes estimate   =   -1130.04434844 Ry
     estimated scf accuracy    <       0.00000032 Ry

     total all-electron energy =    -15406.613370 Ry

     The total energy is the sum of the following terms:

     one-electron contribution =     469.12344682 Ry
     hartree contribution      =       1.75387721 Ry
     xc contribution           =    -138.28637197 Ry
     ewald contribution        =    -326.84024986 Ry
     one-center paw contrib.   =   -1135.79542336 Ry
     smearing contrib. (-TS)   =       0.00037357 Ry

     convergence has been achieved in  18 iterations

     Forces acting on atoms (cartesian axes, Ry/au):

     atom    1 type  1   force =    -0.00377194   -0.00399742    0.00101700
     atom    2 type  1   force =    -0.00489694   -0.00185085    0.01301035
     atom    3 type  1   force =     0.01334859    0.00122585   -0.02068793
     atom    4 type  1   force =    -0.00686309    0.00279388   -0.02348018
     atom    5 type  1   force =    -0.01461695   -0.01307442    0.01651344
     atom    6 type  1   force =    -0.01054418    0.01141703   -0.00663303
     atom    7 type  1   force =    -0.01505398   -0.03157655    0.01288718
     atom    8 type  1   force =    -0.00586836    0.00980998   -0.00459445
     atom    9 type  1   force =     0.01982941    0.00512297   -0.00121457
     atom   10 type  1   force =    -0.00603925    0.00972779   -0.02758782
     atom   11 type  1   force =    -0.00999143   -0.01850895   -0.01252592
     atom   12 type  1   force =    -0.01562425   -0.00513068   -0.01027703
     atom   13 type  1   force =    -0.00485962   -0.01732900    0.00629591
     atom   14 type  1   force =    -0.01017100    0.02010800    0.01941041
     atom   15 type  1   force =    -0.01759695    0.01467035    0.01759809
     atom   16 type  1   force =     0.02431796    0.01148828    0.01467085
     atom   17 type  1   force =    -0.01736712   -0.00469305   -0.00118359
     atom   18 type  1   force =     0.01041230   -0.00333592    0.01446412
     atom   19 type  1   force =     0.01970884    0.01306756   -0.00407091
     atom   20 type  1   force =     0.00641950    0.02106848   -0.00999501
     atom   21 type  1   force =     0.00459580   -0.02244784    0.00988684
     atom   22 type  1   force =    -0.00242634    0.02331428    0.01257927
     atom   23 type  1   force =     0.01317710   -0.00924962   -0.01233448
     atom   24 type  1   force =     0.01446012    0.00471308    0.00416544
     atom   25 type  1   force =    -0.01168902   -0.00063416    0.00572117
     atom   26 type  1   force =     0.01114522   -0.00874823    0.00378260
     atom   27 type  1   force =    -0.00832766   -0.00776290    0.00314650
     atom   28 type  1   force =     0.00505842    0.00036028    0.00561787
     atom   29 type  1   force =     0.03895753   -0.01867163    0.00209756
     atom   30 type  1   force =    -0.00443134    0.00767503   -0.00104989
     atom   31 type  1   force =    -0.01106503   -0.00530988   -0.01689215
     atom   32 type  1   force =    -0.00022634    0.01575825   -0.01033761

     Total force =     0.127922     Total SCF correction =     0.000659


     Computing stress (Cartesian axis) and pressure

          total   stress  (Ry/bohr**3)                   (kbar)     P=59575.61
   0.40498564   0.00000021   0.00000105      59575.44      0.03      0.16
   0.00000021   0.40498736  -0.00000145          0.03  59575.69     -0.21
   0.00000105  -0.00000145   0.40498749          0.16     -0.21  59575.71


     Writing output data file fe_scf_fcc_2.save/
 
     init_run     :      6.99s CPU      7.42s WALL (       1 calls)
     electrons    :    238.84s CPU    268.94s WALL (       1 calls)
     forces       :      1.52s CPU      1.69s WALL (       1 calls)
     stress       :      2.59s CPU      2.63s WALL (       1 calls)

     Called by init_run:
     wfcinit      :      6.87s CPU      7.27s WALL (       1 calls)
     potinit      :      0.07s CPU      0.07s WALL (       1 calls)
     hinit0       :      0.04s CPU      0.06s WALL (       1 calls)

     Called by electrons:
     c_bands      :    218.29s CPU    225.99s WALL (      18 calls)
     sum_band     :     19.29s CPU     20.89s WALL (      18 calls)
     v_of_rho     :      0.04s CPU      0.06s WALL (      19 calls)
     newd         :      0.04s CPU      0.05s WALL (      19 calls)
     PAW_pot      :      1.20s CPU      1.21s WALL (      19 calls)
     mix_rho      :      0.02s CPU      0.03s WALL (      18 calls)

     Called by c_bands:
     init_us_2    :      1.81s CPU      1.88s WALL (    6708 calls)
     cegterg      :    210.74s CPU    218.28s WALL (    3098 calls)

     Called by sum_band:
     sum_band:bec :      0.34s CPU      0.34s WALL (    3096 calls)
     addusdens    :      0.02s CPU      0.02s WALL (      18 calls)

     Called by *egterg:
     h_psi        :     94.31s CPU    100.51s WALL (   14081 calls)
     s_psi        :      8.46s CPU      8.54s WALL (   14081 calls)
     g_psi        :      0.54s CPU      0.54s WALL (   10811 calls)
     cdiaghg      :     89.95s CPU     90.28s WALL (   13909 calls)

     Called by h_psi:
     h_psi:pot    :     93.83s CPU    100.02s WALL (   14081 calls)
     h_psi:calbec :     12.36s CPU     14.44s WALL (   14081 calls)
     vloc_psi     :     72.35s CPU     76.35s WALL (   14081 calls)
     add_vuspsi   :      9.03s CPU      9.16s WALL (   14081 calls)

     General routines
     calbec       :     17.37s CPU     20.42s WALL (   18037 calls)
     fft          :      0.07s CPU      0.11s WALL (     235 calls)
     ffts         :      0.00s CPU      0.01s WALL (      18 calls)
     fftw         :     80.73s CPU     85.21s WALL ( 1153818 calls)
 
     Parallel routines
     fft_scatt_xy :      6.06s CPU      6.41s WALL ( 1154071 calls)
     fft_scatt_yz :     49.47s CPU     52.49s WALL ( 1154071 calls)
 
     PWSCF        :  4m12.21s CPU     4m44.23s WALL

 
   This run was terminated on:   0:27:38  23Oct2019            

=------------------------------------------------------------------------------=
   JOB DONE.
=------------------------------------------------------------------------------=
