
     Program PWSCF v.6.3 starts on 22Oct2019 at 19:12:17 

     This program is part of the open-source Quantum ESPRESSO suite
     for quantum simulation of materials; please cite
         "P. Giannozzi et al., J. Phys.:Condens. Matter 21 395502 (2009);
         "P. Giannozzi et al., J. Phys.:Condens. Matter 29 465901 (2017);
          URL http://www.quantum-espresso.org", 
     in publications or presentations arising from this work. More details at
     http://www.quantum-espresso.org/quote

     Parallel version (MPI & OpenMP), running on      20 processor cores
     Number of MPI processes:                20
     Threads/MPI process:                     1

     MPI processes distributed on     1 nodes
     R & G space division:  proc/nbgrp/npool/nimage =      20
     Reading input from /rds/homes/b/bxp912/jobs/20191022_test/wd/runpwscf/file_10234.in
Warning: card &IONS ignored
Warning: card ION_DYNAMICS = 'BFGS', ignored
Warning: card / ignored
Warning: card &CELL ignored
Warning: card CELL_DYNAMICS = 'BFGS', ignored
Warning: card CELL_FACTOR = 2.0, ignored
Warning: card PRESS = 0.0, ignored
Warning: card / ignored

     Current dimensions of program PWSCF are:
     Max number of different atomic species (ntypx) = 10
     Max number of k-points (npk) =  40000
     Max angular momentum in pseudopotentials (lmaxx) =  3
     Message from routine read_upf::
     Pseudo file /rds/homes/b/bxp912/pp/Al.pbe-nl-kjpaw_psl.1.0.0.UPF has been successfully fixed on the fly.
To avoid this message in the future you can permanently fix 
 your pseudo files following instructions given in: 
https://gitlab.com/QEF/q-e/blob/master/upftools/how_to_fix_upf.md
               file Al.pbe-nl-kjpaw_psl.1.0.0.UPF: wavefunction(s)  3S 3P renormalized

     Subspace diagonalization in iterative solution of the eigenvalue problem:
     a serial algorithm will be used

 
     Parallelization info
     --------------------
     sticks:   dense  smooth     PW     G-vecs:    dense   smooth      PW
     Min          52      52     20                 1262     1262     300
     Max          53      53     21                 1265     1265     303
     Sum        1041    1041    401                25269    25269    6031
 


     bravais-lattice index     =            0
     lattice parameter (alat)  =       8.0800  a.u.
     unit-cell volume          =     527.5141 (a.u.)^3
     number of atoms/cell      =           32
     number of atomic types    =            1
     number of electrons       =        96.00
     number of Kohn-Sham states=           58
     kinetic-energy cutoff     =      66.0000  Ry
     charge density cutoff     =     200.0000  Ry
     convergence threshold     =      1.0E-06
     mixing beta               =       0.1000
     number of iterations used =           10  TF        mixing
     Exchange-correlation      = SLA PW PBX PBC ( 1  4  3  4 0 0)

     celldm(1)=   8.080000  celldm(2)=   0.000000  celldm(3)=   0.000000
     celldm(4)=   0.000000  celldm(5)=   0.000000  celldm(6)=   0.000000

     crystal axes: (cart. coord. in units of alat)
               a(1) = (   1.000000   0.000000   0.000000 )  
               a(2) = (   0.000000   1.000000   0.000000 )  
               a(3) = (   0.000000   0.000000   1.000000 )  

     reciprocal axes: (cart. coord. in units 2 pi/alat)
               b(1) = (  1.000000  0.000000  0.000000 )  
               b(2) = (  0.000000  1.000000  0.000000 )  
               b(3) = (  0.000000  0.000000  1.000000 )  


     PseudoPot. # 1 for Al read from file:
     /rds/homes/b/bxp912/pp/Al.pbe-nl-kjpaw_psl.1.0.0.UPF
     MD5 check sum: 339dbea23cf3ab9a065ad45c0f9085d7
     Pseudo is Projector augmented-wave + core cor, Zval =  3.0
     Generated using "atomic" code by A. Dal Corso v.5.1
     Shape of augmentation charge: PSQ
     Using radial grid of 1135 points,  4 beta functions with: 
                l(1) =   0
                l(2) =   0
                l(3) =   1
                l(4) =   1
     Q(r) pseudized with 0 coefficients 


     atomic species   valence    mass     pseudopotential
        Al             3.00    26.98200     Al( 1.00)

     No symmetry found



   Cartesian axes

     site n.     atom                  positions (alat units)
         1           Al  tau(   1) = (  -0.0000618   0.0000180   0.0001286  )
         2           Al  tau(   2) = (   0.2501504   0.2496409   0.0001329  )
         3           Al  tau(   3) = (   0.2498245   0.0000576   0.2505585  )
         4           Al  tau(   4) = (  -0.0000378   0.2504134   0.2503472  )
         5           Al  tau(   5) = (   0.0004835   0.0004765   0.4997751  )
         6           Al  tau(   6) = (   0.2502257   0.2496836   0.5000068  )
         7           Al  tau(   7) = (   0.2500525   0.0002908   0.7497884  )
         8           Al  tau(   8) = (   0.0001038   0.2502148   0.7503971  )
         9           Al  tau(   9) = (   0.0004488   0.5002037  -0.0000292  )
        10           Al  tau(  10) = (   0.2502638   0.7503330   0.0007661  )
        11           Al  tau(  11) = (   0.2503574   0.5002057   0.2504745  )
        12           Al  tau(  12) = (   0.0000725   0.7500861   0.2500479  )
        13           Al  tau(  13) = (   0.0002082   0.5002952   0.5001871  )
        14           Al  tau(  14) = (   0.2499320   0.7501195   0.4997555  )
        15           Al  tau(  15) = (   0.2506361   0.4996019   0.7494255  )
        16           Al  tau(  16) = (  -0.0006199   0.7494434   0.7499870  )
        17           Al  tau(  17) = (   0.5003850  -0.0001898  -0.0000732  )
        18           Al  tau(  18) = (   0.7498343   0.2501778  -0.0004407  )
        19           Al  tau(  19) = (   0.7493109  -0.0001812   0.2501458  )
        20           Al  tau(  20) = (   0.4999530   0.2499270   0.2496819  )
        21           Al  tau(  21) = (   0.4998509   0.0005536   0.4999482  )
        22           Al  tau(  22) = (   0.7501292   0.2494251   0.4999098  )
        23           Al  tau(  23) = (   0.7500676  -0.0001298   0.7500485  )
        24           Al  tau(  24) = (   0.5000215   0.2497853   0.7499902  )
        25           Al  tau(  25) = (   0.4997214   0.5002185  -0.0004144  )
        26           Al  tau(  26) = (   0.7495697   0.7501849   0.0005172  )
        27           Al  tau(  27) = (   0.7501903   0.4996254   0.2498983  )
        28           Al  tau(  28) = (   0.5001659   0.7496046   0.2503955  )
        29           Al  tau(  29) = (   0.4993878   0.5001941   0.5000764  )
        30           Al  tau(  30) = (   0.7503133   0.7499759   0.4997253  )
        31           Al  tau(  31) = (   0.7499001   0.5000179   0.7502634  )
        32           Al  tau(  32) = (   0.5000268   0.7499029   0.7498445  )

     number of k points=    14  Marzari-Vanderbilt smearing, width (Ry)=  0.0200
                       cart. coord. in units 2pi/alat
        k(    1) = (   0.1666667   0.1666667   0.1666667), wk =   0.1481481
        k(    2) = (   0.1666667   0.1666667  -0.5000000), wk =   0.1481481
        k(    3) = (   0.1666667  -0.5000000  -0.5000000), wk =   0.1481481
        k(    4) = (  -0.5000000  -0.5000000  -0.5000000), wk =   0.0740741
        k(    5) = (  -0.1666667  -0.1666667   0.1666667), wk =   0.1481481
        k(    6) = (  -0.1666667   0.1666667  -0.1666667), wk =   0.1481481
        k(    7) = (   0.1666667  -0.1666667  -0.1666667), wk =   0.1481481
        k(    8) = (  -0.1666667   0.1666667   0.5000000), wk =   0.1481481
        k(    9) = (  -0.5000000  -0.1666667   0.1666667), wk =   0.1481481
        k(   10) = (   0.5000000  -0.1666667  -0.1666667), wk =   0.1481481
        k(   11) = (  -0.1666667  -0.5000000   0.1666667), wk =   0.1481481
        k(   12) = (  -0.1666667   0.5000000  -0.1666667), wk =   0.1481481
        k(   13) = (  -0.5000000   0.1666667   0.5000000), wk =   0.1481481
        k(   14) = (  -0.5000000   0.5000000   0.1666667), wk =   0.1481481

     Dense  grid:    25269 G-vectors     FFT dimensions: (  40,  40,  40)

     Estimated max dynamical RAM per process >      10.55 MB

     Estimated total dynamical RAM >     210.93 MB

     Initial potential from superposition of free atoms

     starting charge   95.92671, renormalised to   96.00000
     Starting wfcs are  128 randomized atomic wfcs
     Checking if some PAW data can be deallocated... 

     total cpu time spent up to now is        1.3 secs

     Self-consistent Calculation

     iteration #  1     ecut=    66.00 Ry     beta= 0.10
     Davidson diagonalization with overlap
     ethr =  1.00E-02,  avg # of iterations =  5.5

     total cpu time spent up to now is        3.5 secs

     total energy              =   -1133.21124994 Ry
     Harris-Foulkes estimate   =   -1134.45561064 Ry
     estimated scf accuracy    <       1.40137989 Ry

     iteration #  2     ecut=    66.00 Ry     beta= 0.10
     Davidson diagonalization with overlap
     ethr =  1.46E-03,  avg # of iterations =  2.8

     total cpu time spent up to now is        4.6 secs

     total energy              =   -1129.52294090 Ry
     Harris-Foulkes estimate   =   -1133.30077382 Ry
     estimated scf accuracy    <       1.21574682 Ry

     iteration #  3     ecut=    66.00 Ry     beta= 0.10
     Davidson diagonalization with overlap
     ethr =  1.27E-03,  avg # of iterations =  3.9

     total cpu time spent up to now is        6.1 secs

     total energy              =   -1130.04878147 Ry
     Harris-Foulkes estimate   =   -1130.50654371 Ry
     estimated scf accuracy    <       0.19278694 Ry

     iteration #  4     ecut=    66.00 Ry     beta= 0.10
     Davidson diagonalization with overlap
     ethr =  2.01E-04,  avg # of iterations =  3.5

     total cpu time spent up to now is        7.3 secs

     total energy              =   -1129.95241015 Ry
     Harris-Foulkes estimate   =   -1130.07559282 Ry
     estimated scf accuracy    <       0.11512381 Ry

     iteration #  5     ecut=    66.00 Ry     beta= 0.10
     Davidson diagonalization with overlap
     ethr =  1.20E-04,  avg # of iterations =  2.6

     total cpu time spent up to now is        8.2 secs

     total energy              =   -1129.97529665 Ry
     Harris-Foulkes estimate   =   -1129.96835466 Ry
     estimated scf accuracy    <       0.00861131 Ry

     iteration #  6     ecut=    66.00 Ry     beta= 0.10
     Davidson diagonalization with overlap
     ethr =  8.97E-06,  avg # of iterations = 11.4

     total cpu time spent up to now is       11.2 secs

     total energy              =   -1129.99071271 Ry
     Harris-Foulkes estimate   =   -1129.98903634 Ry
     estimated scf accuracy    <       0.00700359 Ry

     iteration #  7     ecut=    66.00 Ry     beta= 0.10
     Davidson diagonalization with overlap
     ethr =  7.30E-06,  avg # of iterations =  1.0

     total cpu time spent up to now is       11.9 secs

     total energy              =   -1129.98728038 Ry
     Harris-Foulkes estimate   =   -1129.99076816 Ry
     estimated scf accuracy    <       0.00968258 Ry

     iteration #  8     ecut=    66.00 Ry     beta= 0.10
     Davidson diagonalization with overlap
     ethr =  7.30E-06,  avg # of iterations =  1.0

     total cpu time spent up to now is       12.6 secs

     total energy              =   -1129.98858439 Ry
     Harris-Foulkes estimate   =   -1129.98763426 Ry
     estimated scf accuracy    <       0.00148154 Ry

     iteration #  9     ecut=    66.00 Ry     beta= 0.10
     Davidson diagonalization with overlap
     ethr =  1.54E-06,  avg # of iterations =  3.9

     total cpu time spent up to now is       13.6 secs

     total energy              =   -1129.98684873 Ry
     Harris-Foulkes estimate   =   -1129.98873496 Ry
     estimated scf accuracy    <       0.00013396 Ry

     iteration # 10     ecut=    66.00 Ry     beta= 0.10
     Davidson diagonalization with overlap
     ethr =  1.40E-07,  avg # of iterations =  4.9

     total cpu time spent up to now is       15.3 secs

     total energy              =   -1129.98615831 Ry
     Harris-Foulkes estimate   =   -1129.98694160 Ry
     estimated scf accuracy    <       0.00008342 Ry

     iteration # 11     ecut=    66.00 Ry     beta= 0.10
     Davidson diagonalization with overlap
     ethr =  8.69E-08,  avg # of iterations =  2.3

     total cpu time spent up to now is       16.2 secs

     total energy              =   -1129.98430819 Ry
     Harris-Foulkes estimate   =   -1129.98617206 Ry
     estimated scf accuracy    <       0.00013247 Ry

     iteration # 12     ecut=    66.00 Ry     beta= 0.10
     Davidson diagonalization with overlap
     ethr =  8.69E-08,  avg # of iterations =  4.3

     total cpu time spent up to now is       17.9 secs

     total energy              =   -1129.98427853 Ry
     Harris-Foulkes estimate   =   -1129.98443853 Ry
     estimated scf accuracy    <       0.00001380 Ry

     iteration # 13     ecut=    66.00 Ry     beta= 0.10
     Davidson diagonalization with overlap
     ethr =  1.44E-08,  avg # of iterations =  5.0

     total cpu time spent up to now is       19.7 secs

     total energy              =   -1129.98429505 Ry
     Harris-Foulkes estimate   =   -1129.98429604 Ry
     estimated scf accuracy    <       0.00000861 Ry

     iteration # 14     ecut=    66.00 Ry     beta= 0.10
     Davidson diagonalization with overlap
     ethr =  8.96E-09,  avg # of iterations =  2.4

     total cpu time spent up to now is       20.6 secs

     total energy              =   -1129.98430055 Ry
     Harris-Foulkes estimate   =   -1129.98429622 Ry
     estimated scf accuracy    <       0.00001132 Ry

     iteration # 15     ecut=    66.00 Ry     beta= 0.10
     Davidson diagonalization with overlap
     ethr =  8.96E-09,  avg # of iterations =  2.3

     total cpu time spent up to now is       21.5 secs

     total energy              =   -1129.98429422 Ry
     Harris-Foulkes estimate   =   -1129.98430270 Ry
     estimated scf accuracy    <       0.00000245 Ry

     iteration # 16     ecut=    66.00 Ry     beta= 0.10
     Davidson diagonalization with overlap
     ethr =  2.55E-09,  avg # of iterations =  3.7

     total cpu time spent up to now is       23.0 secs

     End of self-consistent calculation

          k = 0.1667 0.1667 0.1667 (  4788 PWs)   bands (ev):

    30.0802  34.7223  34.7338  34.7433  37.8750  37.8832  37.8900  38.6113
    38.6222  38.6311  41.0718  41.0756  41.0793  41.4048  41.4108  41.4132
    41.4188  41.4276  41.4294  41.6489  43.6299  43.6352  43.6397  44.1667
    44.1702  44.1757  44.1787  44.1846  44.1898  44.3433  44.3551  44.3662
    46.8485  46.8608  46.8730  49.3957  52.2213  52.2243  52.2258  52.2865
    52.2917  52.2955  52.3882  52.3906  52.3928  52.3942  52.3977  52.4009
    53.9197  53.9265  53.9303  53.9351  53.9393  53.9463  53.9490  53.9550
    53.9566  53.9590

          k = 0.1667 0.1667-0.5000 (  4798 PWs)   bands (ev):

    31.8118  31.8223  36.1533  36.1601  36.1665  36.1694  39.2206  39.2253
    39.2296  39.2330  39.6791  39.6879  40.1814  40.1932  42.4758  42.4843
    42.4862  42.4914  42.5269  42.5284  42.5304  42.5338  43.5408  43.5428
    43.5515  43.5546  44.6299  44.6313  44.6370  44.6398  44.7636  44.7664
    47.9721  47.9900  50.0575  50.0703  50.0799  50.0870  51.3898  51.3974
    51.4036  51.4132  52.2955  52.2982  52.3005  52.3038  52.3309  52.3436
    52.3513  52.3627  52.6541  52.6670  53.9149  53.9406  54.3192  54.3203
    54.3211  54.3227

          k = 0.1667-0.5000-0.5000 (  4724 PWs)   bands (ev):

    33.4098  33.4162  33.4256  33.4303  37.4129  37.4188  37.4273  37.4315
    40.4206  40.4252  40.4318  40.4351  41.5646  41.5736  41.5839  41.5859
    41.5887  41.5913  41.5973  41.6047  43.7795  43.7807  43.7831  43.7846
    44.6539  44.6594  44.6686  44.6694  44.6703  44.6738  44.6767  44.6827
    49.0469  49.0547  49.0609  49.0694  49.0744  49.0783  49.0834  49.0932
    51.4772  51.4809  51.4879  51.4926  52.8328  52.8366  52.8441  52.8499
    53.2496  53.2530  53.2611  53.2663  53.2760  53.2805  53.2886  53.2941
    54.7055  54.7072

          k =-0.5000-0.5000-0.5000 (  4776 PWs)   bands (ev):

    34.8497  34.8611  34.8625  34.8704  34.8747  34.8770  34.8884  34.8915
    42.8586  42.8625  42.8678  42.8744  42.8798  42.8819  42.8834  42.8842
    42.8856  42.8875  42.8894  42.8911  42.8957  42.8997  42.9008  42.9047
    42.9058  42.9093  42.9109  42.9175  42.9200  42.9219  42.9244  42.9302
    50.9976  51.0098  51.0144  51.0198  51.0224  51.0269  51.0316  51.0356
    51.0367  51.0394  51.0406  51.0430  51.0471  51.0486  51.0516  51.0583
    51.0600  51.0674  51.0676  51.0740  51.0780  51.0826  51.0889  51.0905
    58.6645  58.6687

          k =-0.1667-0.1667 0.1667 (  4788 PWs)   bands (ev):

    30.0802  34.7242  34.7339  34.7412  37.8764  37.8834  37.8886  38.6130
    38.6223  38.6292  41.0733  41.0756  41.0779  41.3987  41.4092  41.4143
    41.4152  41.4291  41.4385  41.6486  43.6305  43.6353  43.6388  44.1669
    44.1718  44.1766  44.1787  44.1838  44.1886  44.3478  44.3546  44.3616
    46.8533  46.8608  46.8683  49.3957  52.2225  52.2235  52.2254  52.2883
    52.2909  52.2940  52.3894  52.3910  52.3918  52.3958  52.3976  52.3991
    53.9183  53.9234  53.9364  53.9417  53.9448  53.9471  53.9509  53.9560
    53.9617  53.9700

          k =-0.1667 0.1667-0.1667 (  4788 PWs)   bands (ev):

    30.0802  34.7231  34.7331  34.7431  37.8756  37.8828  37.8899  38.6119
    38.6214  38.6310  41.0716  41.0756  41.0797  41.3971  41.4068  41.4172
    41.4218  41.4289  41.4336  41.6483  43.6302  43.6348  43.6396  44.1676
    44.1722  44.1750  44.1796  44.1839  44.1876  44.3424  44.3549  44.3671
    46.8476  46.8607  46.8740  49.3957  52.2218  52.2236  52.2256  52.2869
    52.2923  52.2956  52.3884  52.3911  52.3938  52.3946  52.3967  52.3988
    53.9182  53.9272  53.9350  53.9414  53.9433  53.9483  53.9489  53.9519
    53.9574  53.9631

          k = 0.1667-0.1667-0.1667 (  4788 PWs)   bands (ev):

    30.0802  34.7218  34.7357  34.7419  37.8744  37.8846  37.8890  38.6111
    38.6239  38.6298  41.0710  41.0755  41.0802  41.3969  41.4097  41.4156
    41.4204  41.4272  41.4348  41.6490  43.6293  43.6362  43.6389  44.1682
    44.1706  44.1737  44.1792  44.1842  44.1899  44.3415  44.3550  44.3684
    46.8461  46.8608  46.8755  49.3956  52.2219  52.2237  52.2251  52.2861
    52.2909  52.2956  52.3880  52.3903  52.3918  52.3969  52.3979  52.4012
    53.9168  53.9266  53.9308  53.9360  53.9406  53.9429  53.9528  53.9541
    53.9564  53.9611

          k =-0.1667 0.1667 0.5000 (  4798 PWs)   bands (ev):

    31.8118  31.8223  36.1518  36.1619  36.1638  36.1719  39.2192  39.2266
    39.2281  39.2345  39.6791  39.6880  40.1813  40.1931  42.4729  42.4784
    42.4895  42.4969  42.5248  42.5279  42.5320  42.5348  43.5411  43.5428
    43.5520  43.5539  44.6292  44.6320  44.6366  44.6403  44.7636  44.7664
    47.9721  47.9900  50.0546  50.0685  50.0783  50.0935  51.3928  51.3961
    51.4049  51.4099  52.2944  52.2990  52.3000  52.3057  52.3366  52.3420
    52.3526  52.3564  52.6541  52.6674  53.9148  53.9405  54.3183  54.3192
    54.3226  54.3233

          k =-0.5000-0.1667 0.1667 (  4798 PWs)   bands (ev):

    31.8112  31.8229  36.1523  36.1591  36.1634  36.1746  39.2197  39.2245
    39.2282  39.2364  39.6786  39.6878  40.1809  40.1939  42.4717  42.4866
    42.4889  42.4902  42.5264  42.5278  42.5299  42.5356  43.5408  43.5422
    43.5523  43.5549  44.6277  44.6321  44.6378  44.6399  44.7637  44.7668
    47.9711  47.9910  50.0519  50.0750  50.0798  50.0879  51.3904  51.3962
    51.4070  51.4104  52.2937  52.2997  52.3012  52.3037  52.3347  52.3403
    52.3529  52.3601  52.6527  52.6690  53.9136  53.9420  54.3184  54.3194
    54.3214  54.3239

          k = 0.5000-0.1667-0.1667 (  4798 PWs)   bands (ev):

    31.8112  31.8229  36.1512  36.1598  36.1625  36.1759  39.2182  39.2244
    39.2271  39.2381  39.6792  39.6883  40.1809  40.1938  42.4738  42.4797
    42.4880  42.4948  42.5260  42.5283  42.5321  42.5342  43.5396  43.5425
    43.5506  43.5572  44.6278  44.6328  44.6374  44.6396  44.7637  44.7666
    47.9711  47.9910  50.0551  50.0691  50.0775  50.0933  51.3880  51.3969
    51.4028  51.4162  52.2944  52.2991  52.3003  52.3058  52.3233  52.3453
    52.3511  52.3670  52.6527  52.6690  53.9136  53.9420  54.3185  54.3194
    54.3223  54.3227

          k =-0.1667-0.5000 0.1667 (  4798 PWs)   bands (ev):

    31.8154  31.8186  36.1509  36.1587  36.1688  36.1710  39.2175  39.2248
    39.2317  39.2345  39.6822  39.6846  40.1855  40.1892  42.4824  42.4833
    42.4854  42.4862  42.5290  42.5293  42.5304  42.5309  43.5416  43.5476
    43.5492  43.5515  44.6316  44.6317  44.6353  44.6393  44.7648  44.7654
    47.9782  47.9837  50.0699  50.0714  50.0762  50.0777  51.3912  51.3996
    51.4038  51.4090  52.2982  52.2987  52.3007  52.3011  52.3317  52.3435
    52.3493  52.3631  52.6578  52.6634  53.9238  53.9320  54.3201  54.3206
    54.3211  54.3214

          k =-0.1667 0.5000-0.1667 (  4798 PWs)   bands (ev):

    31.8154  31.8186  36.1518  36.1566  36.1693  36.1718  39.2193  39.2230
    39.2324  39.2342  39.6820  39.6845  40.1854  40.1891  42.4758  42.4849
    42.4860  42.4914  42.5265  42.5290  42.5299  42.5338  43.5436  43.5469
    43.5483  43.5511  44.6310  44.6327  44.6355  44.6387  44.7646  44.7655
    47.9784  47.9838  50.0610  50.0758  50.0763  50.0816  51.3965  51.3995
    51.4013  51.4063  52.2959  52.3002  52.3009  52.3019  52.3398  52.3457
    52.3499  52.3529  52.6578  52.6634  53.9238  53.9320  54.3186  54.3203
    54.3211  54.3231

          k =-0.5000 0.1667 0.5000 (  4724 PWs)   bands (ev):

    33.4061  33.4155  33.4245  33.4359  37.4095  37.4181  37.4263  37.4366
    40.4179  40.4246  40.4309  40.4391  41.5695  41.5771  41.5784  41.5839
    41.5863  41.5937  41.5966  41.6046  43.7778  43.7815  43.7826  43.7857
    44.6573  44.6621  44.6638  44.6674  44.6700  44.6746  44.6778  44.6820
    49.0398  49.0547  49.0649  49.0678  49.0698  49.0821  49.0902  49.0918
    51.4728  51.4833  51.4868  51.4960  52.8265  52.8387  52.8436  52.8537
    53.2509  53.2561  53.2611  53.2656  53.2735  53.2787  53.2869  53.2966
    54.7036  54.7084

          k =-0.5000 0.5000 0.1667 (  4724 PWs)   bands (ev):

    33.4133  33.4142  33.4245  33.4298  37.4161  37.4169  37.4263  37.4312
    40.4230  40.4237  40.4309  40.4347  41.5684  41.5710  41.5775  41.5854
    41.5881  41.5979  41.6001  41.6023  43.7793  43.7807  43.7835  43.7841
    44.6569  44.6575  44.6637  44.6692  44.6707  44.6773  44.6783  44.6814
    49.0503  49.0558  49.0641  49.0676  49.0692  49.0770  49.0849  49.0923
    51.4771  51.4810  51.4893  51.4915  52.8315  52.8366  52.8462  52.8487
    53.2462  53.2569  53.2636  53.2654  53.2723  53.2817  53.2855  53.2974
    54.7059  54.7078

     the Fermi energy is    52.5447 ev

!    total energy              =   -1129.98429373 Ry
     Harris-Foulkes estimate   =   -1129.98429632 Ry
     estimated scf accuracy    <       0.00000064 Ry

     total all-electron energy =    -15406.553316 Ry

     The total energy is the sum of the following terms:

     one-electron contribution =     469.32830555 Ry
     hartree contribution      =       1.73398235 Ry
     xc contribution           =    -138.29724736 Ry
     ewald contribution        =    -326.84024986 Ry
     one-center paw contrib.   =   -1135.91357636 Ry
     smearing contrib. (-TS)   =       0.00449195 Ry

     convergence has been achieved in  16 iterations

     Forces acting on atoms (cartesian axes, Ry/au):

     atom    1 type  1   force =    -0.00239721   -0.00596813    0.00127637
     atom    2 type  1   force =    -0.00449607   -0.00557151    0.01451600
     atom    3 type  1   force =     0.01415705    0.00213584   -0.01928572
     atom    4 type  1   force =    -0.00768524    0.00583867   -0.02527768
     atom    5 type  1   force =    -0.01343386   -0.01149138    0.01632089
     atom    6 type  1   force =    -0.01029894    0.00765779   -0.00835034
     atom    7 type  1   force =    -0.01667716   -0.03157445    0.01143105
     atom    8 type  1   force =    -0.00682785    0.01268568   -0.00236690
     atom    9 type  1   force =     0.02489191    0.00606325   -0.00244752
     atom   10 type  1   force =    -0.00469574    0.01434340   -0.02487536
     atom   11 type  1   force =    -0.00819158   -0.01942463   -0.01009322
     atom   12 type  1   force =    -0.01692563   -0.00748393   -0.01082983
     atom   13 type  1   force =    -0.00387519   -0.01796671    0.00766993
     atom   14 type  1   force =    -0.01145701    0.02265964    0.01792943
     atom   15 type  1   force =    -0.01403499    0.01547821    0.01472936
     atom   16 type  1   force =     0.02297582    0.00889703    0.01554173
     atom   17 type  1   force =    -0.01722296   -0.00716313   -0.00206399
     atom   18 type  1   force =     0.00950538   -0.00311875    0.01393329
     atom   19 type  1   force =     0.01725444    0.01556307   -0.00226358
     atom   20 type  1   force =     0.00816552    0.02373409   -0.01117261
     atom   21 type  1   force =     0.00367918   -0.02065211    0.01045801
     atom   22 type  1   force =    -0.00205437    0.02156355    0.01195190
     atom   23 type  1   force =     0.01409076   -0.01040683   -0.01351824
     atom   24 type  1   force =     0.01481741    0.00348310    0.00557769
     atom   25 type  1   force =    -0.01730128    0.00100634    0.00396790
     atom   26 type  1   force =     0.00916000   -0.00805903    0.00706503
     atom   27 type  1   force =    -0.00979114   -0.01078019    0.00385975
     atom   28 type  1   force =     0.00647782   -0.00210778    0.00845304
     atom   29 type  1   force =     0.03676405   -0.01951183    0.00395669
     atom   30 type  1   force =    -0.00266966    0.00889069   -0.00431415
     atom   31 type  1   force =    -0.01252799   -0.00461676   -0.01767366
     atom   32 type  1   force =     0.00062452    0.01589679   -0.01410528

     Total force =     0.130159     Total SCF correction =     0.000579


     Computing stress (Cartesian axis) and pressure

          total   stress  (Ry/bohr**3)                   (kbar)     P=59709.95
   0.40589840   0.00000036  -0.00000016      59709.71      0.05     -0.02
   0.00000036   0.40590068  -0.00000095          0.05  59710.04     -0.14
  -0.00000016  -0.00000095   0.40590105         -0.02     -0.14  59710.10


     Writing output data file fe_scf_fcc_2.save/
 
     init_run     :      0.67s CPU      0.75s WALL (       1 calls)
     electrons    :     20.91s CPU     21.64s WALL (       1 calls)
     forces       :      0.14s CPU      0.15s WALL (       1 calls)
     stress       :      0.23s CPU      0.23s WALL (       1 calls)

     Called by init_run:
     wfcinit      :      0.57s CPU      0.61s WALL (       1 calls)
     potinit      :      0.07s CPU      0.07s WALL (       1 calls)
     hinit0       :      0.03s CPU      0.06s WALL (       1 calls)

     Called by electrons:
     c_bands      :     18.22s CPU     18.82s WALL (      16 calls)
     sum_band     :      1.50s CPU      1.62s WALL (      16 calls)
     v_of_rho     :      0.04s CPU      0.04s WALL (      17 calls)
     newd         :      0.03s CPU      0.03s WALL (      17 calls)
     PAW_pot      :      1.14s CPU      1.15s WALL (      17 calls)
     mix_rho      :      0.02s CPU      0.02s WALL (      16 calls)

     Called by c_bands:
     init_us_2    :      0.14s CPU      0.14s WALL (     490 calls)
     cegterg      :     17.67s CPU     18.26s WALL (     224 calls)

     Called by sum_band:
     sum_band:bec :      0.03s CPU      0.03s WALL (     224 calls)
     addusdens    :      0.02s CPU      0.02s WALL (      16 calls)

     Called by *egterg:
     h_psi        :      7.60s CPU      8.08s WALL (    1083 calls)
     s_psi        :      0.66s CPU      0.67s WALL (    1083 calls)
     g_psi        :      0.04s CPU      0.04s WALL (     845 calls)
     cdiaghg      :      7.80s CPU      7.84s WALL (    1069 calls)

     Called by h_psi:
     h_psi:pot    :      7.56s CPU      8.04s WALL (    1083 calls)
     h_psi:calbec :      1.01s CPU      1.18s WALL (    1083 calls)
     vloc_psi     :      5.84s CPU      6.14s WALL (    1083 calls)
     add_vuspsi   :      0.71s CPU      0.72s WALL (    1083 calls)

     General routines
     calbec       :      1.42s CPU      1.66s WALL (    1377 calls)
     fft          :      0.05s CPU      0.09s WALL (     213 calls)
     ffts         :      0.02s CPU      0.02s WALL (      16 calls)
     fftw         :      6.45s CPU      6.78s WALL (   88724 calls)
 
     Parallel routines
     fft_scatt_xy :      0.47s CPU      0.49s WALL (   88953 calls)
     fft_scatt_yz :      4.12s CPU      4.34s WALL (   88953 calls)
 
     PWSCF        :    22.85s CPU        23.85s WALL

 
   This run was terminated on:  19:12:41  22Oct2019            

=------------------------------------------------------------------------------=
   JOB DONE.
=------------------------------------------------------------------------------=
