
     Program PWSCF v.6.3 starts on 22Oct2019 at 23:43:40 

     This program is part of the open-source Quantum ESPRESSO suite
     for quantum simulation of materials; please cite
         "P. Giannozzi et al., J. Phys.:Condens. Matter 21 395502 (2009);
         "P. Giannozzi et al., J. Phys.:Condens. Matter 29 465901 (2017);
          URL http://www.quantum-espresso.org", 
     in publications or presentations arising from this work. More details at
     http://www.quantum-espresso.org/quote

     Parallel version (MPI & OpenMP), running on      20 processor cores
     Number of MPI processes:                20
     Threads/MPI process:                     1

     MPI processes distributed on     1 nodes
     R & G space division:  proc/nbgrp/npool/nimage =      20
     Reading input from /rds/homes/b/bxp912/jobs/20191022_test2/wd/runpwscf/file_10233.in
Warning: card &IONS ignored
Warning: card ION_DYNAMICS = 'BFGS', ignored
Warning: card / ignored
Warning: card &CELL ignored
Warning: card CELL_DYNAMICS = 'BFGS', ignored
Warning: card CELL_FACTOR = 2.0, ignored
Warning: card PRESS = 0.0, ignored
Warning: card / ignored

     Current dimensions of program PWSCF are:
     Max number of different atomic species (ntypx) = 10
     Max number of k-points (npk) =  40000
     Max angular momentum in pseudopotentials (lmaxx) =  3
     Message from routine read_upf::
     Pseudo file /rds/homes/b/bxp912/pp/Al.pbe-nl-kjpaw_psl.1.0.0.UPF has been successfully fixed on the fly.
To avoid this message in the future you can permanently fix 
 your pseudo files following instructions given in: 
https://gitlab.com/QEF/q-e/blob/master/upftools/how_to_fix_upf.md
               file Al.pbe-nl-kjpaw_psl.1.0.0.UPF: wavefunction(s)  3S 3P renormalized

     Subspace diagonalization in iterative solution of the eigenvalue problem:
     a serial algorithm will be used

 
     Parallelization info
     --------------------
     sticks:   dense  smooth     PW     G-vecs:    dense   smooth      PW
     Min          52      52     20                 1262     1262     300
     Max          53      53     21                 1265     1265     303
     Sum        1041    1041    401                25269    25269    6031
 


     bravais-lattice index     =            0
     lattice parameter (alat)  =       8.0800  a.u.
     unit-cell volume          =     527.5141 (a.u.)^3
     number of atoms/cell      =           32
     number of atomic types    =            1
     number of electrons       =        96.00
     number of Kohn-Sham states=           58
     kinetic-energy cutoff     =      66.0000  Ry
     charge density cutoff     =     200.0000  Ry
     convergence threshold     =      1.0E-06
     mixing beta               =       0.1000
     number of iterations used =           10  TF        mixing
     Exchange-correlation      = SLA PW PBX PBC ( 1  4  3  4 0 0)

     celldm(1)=   8.080000  celldm(2)=   0.000000  celldm(3)=   0.000000
     celldm(4)=   0.000000  celldm(5)=   0.000000  celldm(6)=   0.000000

     crystal axes: (cart. coord. in units of alat)
               a(1) = (   1.000000   0.000000   0.000000 )  
               a(2) = (   0.000000   1.000000   0.000000 )  
               a(3) = (   0.000000   0.000000   1.000000 )  

     reciprocal axes: (cart. coord. in units 2 pi/alat)
               b(1) = (  1.000000  0.000000  0.000000 )  
               b(2) = (  0.000000  1.000000  0.000000 )  
               b(3) = (  0.000000  0.000000  1.000000 )  


     PseudoPot. # 1 for Al read from file:
     /rds/homes/b/bxp912/pp/Al.pbe-nl-kjpaw_psl.1.0.0.UPF
     MD5 check sum: 339dbea23cf3ab9a065ad45c0f9085d7
     Pseudo is Projector augmented-wave + core cor, Zval =  3.0
     Generated using "atomic" code by A. Dal Corso v.5.1
     Shape of augmentation charge: PSQ
     Using radial grid of 1135 points,  4 beta functions with: 
                l(1) =   0
                l(2) =   0
                l(3) =   1
                l(4) =   1
     Q(r) pseudized with 0 coefficients 


     atomic species   valence    mass     pseudopotential
        Al             3.00    26.98200     Al( 1.00)

     No symmetry found



   Cartesian axes

     site n.     atom                  positions (alat units)
         1           Al  tau(   1) = (  -0.0000618   0.0000180   0.0001286  )
         2           Al  tau(   2) = (   0.2501504   0.2496409   0.0001329  )
         3           Al  tau(   3) = (   0.2498245   0.0000576   0.2505585  )
         4           Al  tau(   4) = (  -0.0000378   0.2504134   0.2503472  )
         5           Al  tau(   5) = (   0.0004835   0.0004765   0.4997751  )
         6           Al  tau(   6) = (   0.2502257   0.2496836   0.5000068  )
         7           Al  tau(   7) = (   0.2500525   0.0002908   0.7497884  )
         8           Al  tau(   8) = (   0.0001038   0.2502148   0.7503971  )
         9           Al  tau(   9) = (   0.0004488   0.5002037  -0.0000292  )
        10           Al  tau(  10) = (   0.2502638   0.7503330   0.0007661  )
        11           Al  tau(  11) = (   0.2503574   0.5002057   0.2504745  )
        12           Al  tau(  12) = (   0.0000725   0.7500861   0.2500479  )
        13           Al  tau(  13) = (   0.0002082   0.5002952   0.5001871  )
        14           Al  tau(  14) = (   0.2499320   0.7501195   0.4997555  )
        15           Al  tau(  15) = (   0.2506361   0.4996019   0.7494255  )
        16           Al  tau(  16) = (  -0.0006199   0.7494434   0.7499870  )
        17           Al  tau(  17) = (   0.5003850  -0.0001898  -0.0000732  )
        18           Al  tau(  18) = (   0.7498343   0.2501778  -0.0004407  )
        19           Al  tau(  19) = (   0.7493109  -0.0001812   0.2501458  )
        20           Al  tau(  20) = (   0.4999530   0.2499270   0.2496819  )
        21           Al  tau(  21) = (   0.4998509   0.0005536   0.4999482  )
        22           Al  tau(  22) = (   0.7501292   0.2494251   0.4999098  )
        23           Al  tau(  23) = (   0.7500676  -0.0001298   0.7500485  )
        24           Al  tau(  24) = (   0.5000215   0.2497853   0.7499902  )
        25           Al  tau(  25) = (   0.4997214   0.5002185  -0.0004144  )
        26           Al  tau(  26) = (   0.7495697   0.7501849   0.0005172  )
        27           Al  tau(  27) = (   0.7501903   0.4996254   0.2498983  )
        28           Al  tau(  28) = (   0.5001659   0.7496046   0.2503955  )
        29           Al  tau(  29) = (   0.4993878   0.5001941   0.5000764  )
        30           Al  tau(  30) = (   0.7503133   0.7499759   0.4997253  )
        31           Al  tau(  31) = (   0.7499001   0.5000179   0.7502634  )
        32           Al  tau(  32) = (   0.5000268   0.7499029   0.7498445  )

     number of k points=    14  Marzari-Vanderbilt smearing, width (Ry)=  0.0080
                       cart. coord. in units 2pi/alat
        k(    1) = (   0.1666667   0.1666667   0.1666667), wk =   0.1481481
        k(    2) = (   0.1666667   0.1666667  -0.5000000), wk =   0.1481481
        k(    3) = (   0.1666667  -0.5000000  -0.5000000), wk =   0.1481481
        k(    4) = (  -0.5000000  -0.5000000  -0.5000000), wk =   0.0740741
        k(    5) = (  -0.1666667  -0.1666667   0.1666667), wk =   0.1481481
        k(    6) = (  -0.1666667   0.1666667  -0.1666667), wk =   0.1481481
        k(    7) = (   0.1666667  -0.1666667  -0.1666667), wk =   0.1481481
        k(    8) = (  -0.1666667   0.1666667   0.5000000), wk =   0.1481481
        k(    9) = (  -0.5000000  -0.1666667   0.1666667), wk =   0.1481481
        k(   10) = (   0.5000000  -0.1666667  -0.1666667), wk =   0.1481481
        k(   11) = (  -0.1666667  -0.5000000   0.1666667), wk =   0.1481481
        k(   12) = (  -0.1666667   0.5000000  -0.1666667), wk =   0.1481481
        k(   13) = (  -0.5000000   0.1666667   0.5000000), wk =   0.1481481
        k(   14) = (  -0.5000000   0.5000000   0.1666667), wk =   0.1481481

     Dense  grid:    25269 G-vectors     FFT dimensions: (  40,  40,  40)

     Estimated max dynamical RAM per process >      10.55 MB

     Estimated total dynamical RAM >     210.93 MB

     Initial potential from superposition of free atoms

     starting charge   95.92671, renormalised to   96.00000
     Starting wfcs are  128 randomized atomic wfcs
     Checking if some PAW data can be deallocated... 

     total cpu time spent up to now is        1.7 secs

     Self-consistent Calculation

     iteration #  1     ecut=    66.00 Ry     beta= 0.10
     Davidson diagonalization with overlap
     ethr =  1.00E-02,  avg # of iterations =  5.5

     total cpu time spent up to now is        3.7 secs

     total energy              =   -1133.21406285 Ry
     Harris-Foulkes estimate   =   -1134.45687986 Ry
     estimated scf accuracy    <       1.39816977 Ry

     iteration #  2     ecut=    66.00 Ry     beta= 0.10
     Davidson diagonalization with overlap
     ethr =  1.46E-03,  avg # of iterations =  2.8

     total cpu time spent up to now is        4.6 secs

     total energy              =   -1129.54605960 Ry
     Harris-Foulkes estimate   =   -1133.30416246 Ry
     estimated scf accuracy    <       1.21262328 Ry

     iteration #  3     ecut=    66.00 Ry     beta= 0.10
     Davidson diagonalization with overlap
     ethr =  1.26E-03,  avg # of iterations =  3.9

     total cpu time spent up to now is        6.0 secs

     total energy              =   -1130.07158407 Ry
     Harris-Foulkes estimate   =   -1130.52009370 Ry
     estimated scf accuracy    <       0.19904094 Ry

     iteration #  4     ecut=    66.00 Ry     beta= 0.10
     Davidson diagonalization with overlap
     ethr =  2.07E-04,  avg # of iterations =  3.5

     total cpu time spent up to now is        7.1 secs

     total energy              =   -1129.96581127 Ry
     Harris-Foulkes estimate   =   -1130.09717898 Ry
     estimated scf accuracy    <       0.11962090 Ry

     iteration #  5     ecut=    66.00 Ry     beta= 0.10
     Davidson diagonalization with overlap
     ethr =  1.25E-04,  avg # of iterations =  2.6

     total cpu time spent up to now is        8.0 secs

     total energy              =   -1129.98610289 Ry
     Harris-Foulkes estimate   =   -1129.98191628 Ry
     estimated scf accuracy    <       0.00527263 Ry

     iteration #  6     ecut=    66.00 Ry     beta= 0.10
     Davidson diagonalization with overlap
     ethr =  5.49E-06,  avg # of iterations = 11.6

     total cpu time spent up to now is       10.6 secs

     total energy              =   -1129.99703835 Ry
     Harris-Foulkes estimate   =   -1129.99508663 Ry
     estimated scf accuracy    <       0.00659366 Ry

     iteration #  7     ecut=    66.00 Ry     beta= 0.10
     Davidson diagonalization with overlap
     ethr =  5.49E-06,  avg # of iterations =  1.0

     total cpu time spent up to now is       11.3 secs

     total energy              =   -1129.99540576 Ry
     Harris-Foulkes estimate   =   -1129.99710283 Ry
     estimated scf accuracy    <       0.00963591 Ry

     iteration #  8     ecut=    66.00 Ry     beta= 0.10
     Davidson diagonalization with overlap
     ethr =  5.49E-06,  avg # of iterations =  1.0

     total cpu time spent up to now is       12.0 secs

     total energy              =   -1129.99253057 Ry
     Harris-Foulkes estimate   =   -1129.99558640 Ry
     estimated scf accuracy    <       0.00283648 Ry

     iteration #  9     ecut=    66.00 Ry     beta= 0.10
     Davidson diagonalization with overlap
     ethr =  2.95E-06,  avg # of iterations =  3.0

     total cpu time spent up to now is       12.9 secs

     total energy              =   -1129.99312916 Ry
     Harris-Foulkes estimate   =   -1129.99305185 Ry
     estimated scf accuracy    <       0.00082014 Ry

     iteration # 10     ecut=    66.00 Ry     beta= 0.10
     Davidson diagonalization with overlap
     ethr =  8.54E-07,  avg # of iterations =  2.1

     total cpu time spent up to now is       13.7 secs

     total energy              =   -1129.99235218 Ry
     Harris-Foulkes estimate   =   -1129.99320861 Ry
     estimated scf accuracy    <       0.00015153 Ry

     iteration # 11     ecut=    66.00 Ry     beta= 0.10
     Davidson diagonalization with overlap
     ethr =  1.58E-07,  avg # of iterations =  4.9

     total cpu time spent up to now is       15.5 secs

     total energy              =   -1129.99247580 Ry
     Harris-Foulkes estimate   =   -1129.99241452 Ry
     estimated scf accuracy    <       0.00012390 Ry

     iteration # 12     ecut=    66.00 Ry     beta= 0.10
     Davidson diagonalization with overlap
     ethr =  1.29E-07,  avg # of iterations =  1.0

     total cpu time spent up to now is       16.2 secs

     total energy              =   -1129.99189394 Ry
     Harris-Foulkes estimate   =   -1129.99247662 Ry
     estimated scf accuracy    <       0.00010849 Ry

     iteration # 13     ecut=    66.00 Ry     beta= 0.10
     Davidson diagonalization with overlap
     ethr =  1.13E-07,  avg # of iterations =  3.2

     total cpu time spent up to now is       17.4 secs

     total energy              =   -1129.99190151 Ry
     Harris-Foulkes estimate   =   -1129.99193404 Ry
     estimated scf accuracy    <       0.00003436 Ry

     iteration # 14     ecut=    66.00 Ry     beta= 0.10
     Davidson diagonalization with overlap
     ethr =  3.58E-08,  avg # of iterations =  1.6

     total cpu time spent up to now is       18.2 secs

     total energy              =   -1129.99191698 Ry
     Harris-Foulkes estimate   =   -1129.99190438 Ry
     estimated scf accuracy    <       0.00000394 Ry

     iteration # 15     ecut=    66.00 Ry     beta= 0.10
     Davidson diagonalization with overlap
     ethr =  4.10E-09,  avg # of iterations =  5.2

     total cpu time spent up to now is       19.8 secs

     total energy              =   -1129.99189879 Ry
     Harris-Foulkes estimate   =   -1129.99191833 Ry
     estimated scf accuracy    <       0.00000360 Ry

     iteration # 16     ecut=    66.00 Ry     beta= 0.10
     Davidson diagonalization with overlap
     ethr =  3.75E-09,  avg # of iterations =  3.2

     total cpu time spent up to now is       21.0 secs

     total energy              =   -1129.99189807 Ry
     Harris-Foulkes estimate   =   -1129.99190002 Ry
     estimated scf accuracy    <       0.00000390 Ry

     iteration # 17     ecut=    66.00 Ry     beta= 0.10
     Davidson diagonalization with overlap
     ethr =  3.75E-09,  avg # of iterations =  1.1

     total cpu time spent up to now is       21.8 secs

     End of self-consistent calculation

          k = 0.1667 0.1667 0.1667 (  4788 PWs)   bands (ev):

    30.0730  34.7152  34.7267  34.7362  37.8684  37.8766  37.8834  38.6044
    38.6152  38.6241  41.0685  41.0724  41.0761  41.3981  41.4041  41.4064
    41.4121  41.4209  41.4227  41.6431  43.6233  43.6286  43.6331  44.1623
    44.1657  44.1711  44.1742  44.1802  44.1852  44.3379  44.3498  44.3609
    46.8439  46.8562  46.8683  49.3916  52.2184  52.2214  52.2230  52.2870
    52.2922  52.2960  52.3849  52.3872  52.3895  52.3910  52.3942  52.3975
    53.9167  53.9236  53.9274  53.9322  53.9358  53.9428  53.9452  53.9511
    53.9529  53.9554

          k = 0.1667 0.1667-0.5000 (  4798 PWs)   bands (ev):

    31.8043  31.8153  36.1461  36.1528  36.1596  36.1626  39.2137  39.2184
    39.2232  39.2265  39.6723  39.6816  40.1764  40.1880  42.4693  42.4781
    42.4798  42.4853  42.5232  42.5245  42.5267  42.5299  43.5349  43.5371
    43.5456  43.5485  44.6243  44.6257  44.6312  44.6341  44.7566  44.7599
    47.9691  47.9870  50.0543  50.0671  50.0766  50.0837  51.3870  51.3946
    51.4007  51.4102  52.2943  52.2970  52.2994  52.3028  52.3283  52.3408
    52.3484  52.3596  52.6512  52.6641  53.9156  53.9409  54.3134  54.3146
    54.3155  54.3168

          k = 0.1667-0.5000-0.5000 (  4724 PWs)   bands (ev):

    33.4025  33.4090  33.4185  33.4233  37.4059  37.4118  37.4205  37.4249
    40.4139  40.4185  40.4253  40.4287  41.5591  41.5683  41.5781  41.5801
    41.5835  41.5857  41.5920  41.5992  43.7752  43.7762  43.7785  43.7799
    44.6474  44.6532  44.6620  44.6628  44.6638  44.6671  44.6703  44.6762
    49.0442  49.0519  49.0582  49.0666  49.0715  49.0755  49.0805  49.0903
    51.4749  51.4787  51.4857  51.4903  52.8303  52.8343  52.8418  52.8476
    53.2485  53.2518  53.2600  53.2648  53.2744  53.2793  53.2871  53.2927
    54.7029  54.7043

          k =-0.5000-0.5000-0.5000 (  4776 PWs)   bands (ev):

    34.8425  34.8540  34.8552  34.8634  34.8676  34.8698  34.8817  34.8848
    42.8527  42.8568  42.8620  42.8689  42.8739  42.8761  42.8775  42.8784
    42.8797  42.8817  42.8835  42.8854  42.8900  42.8940  42.8950  42.8988
    42.8998  42.9033  42.9052  42.9118  42.9140  42.9159  42.9188  42.9243
    50.9953  51.0075  51.0121  51.0175  51.0200  51.0245  51.0292  51.0333
    51.0342  51.0370  51.0381  51.0406  51.0447  51.0461  51.0491  51.0559
    51.0575  51.0648  51.0649  51.0714  51.0754  51.0800  51.0860  51.0878
    58.6621  58.6665

          k =-0.1667-0.1667 0.1667 (  4788 PWs)   bands (ev):

    30.0729  34.7172  34.7268  34.7341  37.8699  37.8768  37.8819  38.6061
    38.6153  38.6221  41.0701  41.0724  41.0747  41.3919  41.4026  41.4076
    41.4084  41.4223  41.4317  41.6428  43.6239  43.6287  43.6322  44.1624
    44.1673  44.1721  44.1742  44.1794  44.1840  44.3424  44.3493  44.3562
    46.8487  46.8562  46.8636  49.3916  52.2196  52.2207  52.2225  52.2888
    52.2915  52.2945  52.3861  52.3876  52.3885  52.3924  52.3942  52.3958
    53.9151  53.9202  53.9293  53.9368  53.9402  53.9416  53.9460  53.9488
    53.9524  53.9587

          k =-0.1667 0.1667-0.1667 (  4788 PWs)   bands (ev):

    30.0730  34.7161  34.7260  34.7360  37.8691  37.8762  37.8833  38.6050
    38.6144  38.6240  41.0683  41.0724  41.0765  41.3904  41.4001  41.4105
    41.4150  41.4220  41.4268  41.6425  43.6237  43.6282  43.6330  44.1631
    44.1677  44.1705  44.1752  44.1794  44.1831  44.3371  44.3495  44.3617
    46.8429  46.8561  46.8693  49.3916  52.2190  52.2207  52.2228  52.2874
    52.2928  52.2961  52.3850  52.3878  52.3905  52.3913  52.3934  52.3953
    53.9150  53.9236  53.9299  53.9345  53.9380  53.9406  53.9450  53.9473
    53.9536  53.9560

          k = 0.1667-0.1667-0.1667 (  4788 PWs)   bands (ev):

    30.0730  34.7148  34.7286  34.7348  37.8679  37.8781  37.8824  38.6042
    38.6169  38.6227  41.0678  41.0723  41.0770  41.3903  41.4029  41.4090
    41.4137  41.4204  41.4280  41.6431  43.6227  43.6296  43.6323  44.1638
    44.1661  44.1691  44.1748  44.1798  44.1853  44.3361  44.3496  44.3631
    46.8415  46.8562  46.8708  49.3914  52.2191  52.2208  52.2223  52.2866
    52.2914  52.2962  52.3846  52.3870  52.3885  52.3935  52.3945  52.3977
    53.9141  53.9236  53.9278  53.9328  53.9371  53.9394  53.9492  53.9504
    53.9529  53.9576

          k =-0.1667 0.1667 0.5000 (  4798 PWs)   bands (ev):

    31.8043  31.8153  36.1445  36.1546  36.1570  36.1650  39.2124  39.2197
    39.2216  39.2280  39.6723  39.6816  40.1764  40.1879  42.4663  42.4723
    42.4830  42.4908  42.5211  42.5239  42.5284  42.5309  43.5353  43.5370
    43.5461  43.5478  44.6236  44.6265  44.6307  44.6345  44.7566  44.7598
    47.9691  47.9870  50.0513  50.0652  50.0750  50.0903  51.3900  51.3932
    51.4020  51.4069  52.2932  52.2978  52.2988  52.3046  52.3339  52.3393
    52.3496  52.3534  52.6511  52.6645  53.9155  53.9408  54.3128  54.3133
    54.3169  54.3174

          k =-0.5000-0.1667 0.1667 (  4798 PWs)   bands (ev):

    31.8037  31.8159  36.1451  36.1518  36.1565  36.1677  39.2129  39.2175
    39.2217  39.2299  39.6718  39.6816  40.1759  40.1887  42.4651  42.4805
    42.4826  42.4838  42.5224  42.5242  42.5262  42.5317  43.5350  43.5363
    43.5463  43.5489  44.6221  44.6265  44.6319  44.6341  44.7566  44.7602
    47.9681  47.9881  50.0486  50.0717  50.0766  50.0846  51.3876  51.3933
    51.4041  51.4075  52.2923  52.2985  52.3001  52.3027  52.3320  52.3376
    52.3499  52.3570  52.6497  52.6661  53.9143  53.9423  54.3124  54.3140
    54.3159  54.3179

          k = 0.5000-0.1667-0.1667 (  4798 PWs)   bands (ev):

    31.8037  31.8159  36.1440  36.1529  36.1553  36.1690  39.2114  39.2178
    39.2205  39.2316  39.6723  39.6820  40.1759  40.1887  42.4672  42.4736
    42.4815  42.4888  42.5223  42.5243  42.5285  42.5303  43.5337  43.5368
    43.5447  43.5512  44.6222  44.6272  44.6316  44.6338  44.7567  44.7600
    47.9681  47.9880  50.0518  50.0659  50.0741  50.0901  51.3851  51.3942
    51.3999  51.4131  52.2931  52.2978  52.2992  52.3048  52.3207  52.3425
    52.3481  52.3639  52.6497  52.6661  53.9143  53.9423  54.3130  54.3134
    54.3166  54.3169

          k =-0.1667-0.5000 0.1667 (  4798 PWs)   bands (ev):

    31.8081  31.8115  36.1438  36.1517  36.1617  36.1639  39.2107  39.2182
    39.2251  39.2277  39.6756  39.6782  40.1804  40.1841  42.4761  42.4769
    42.4790  42.4800  42.5252  42.5255  42.5266  42.5271  43.5357  43.5417
    43.5433  43.5456  44.6258  44.6260  44.6296  44.6336  44.7579  44.7587
    47.9752  47.9808  50.0666  50.0681  50.0730  50.0744  51.3883  51.3967
    51.4010  51.4061  52.2969  52.2975  52.2996  52.3000  52.3290  52.3407
    52.3465  52.3600  52.6548  52.6606  53.9244  53.9324  54.3144  54.3147
    54.3153  54.3157

          k =-0.1667 0.5000-0.1667 (  4798 PWs)   bands (ev):

    31.8081  31.8115  36.1446  36.1496  36.1622  36.1647  39.2125  39.2164
    39.2257  39.2275  39.6754  39.6781  40.1804  40.1840  42.4693  42.4786
    42.4797  42.4849  42.5227  42.5254  42.5261  42.5299  43.5377  43.5410
    43.5423  43.5452  44.6253  44.6270  44.6298  44.6329  44.7577  44.7587
    47.9754  47.9809  50.0577  50.0725  50.0731  50.0782  51.3936  51.3965
    51.3984  51.4034  52.2947  52.2991  52.2998  52.3008  52.3370  52.3429
    52.3470  52.3500  52.6548  52.6605  53.9244  53.9324  54.3128  54.3147
    54.3155  54.3172

          k =-0.5000 0.1667 0.5000 (  4724 PWs)   bands (ev):

    33.3986  33.4084  33.4172  33.4291  37.4023  37.4112  37.4193  37.4302
    40.4110  40.4181  40.4242  40.4330  41.5641  41.5715  41.5733  41.5785
    41.5807  41.5882  41.5910  41.5992  43.7737  43.7770  43.7781  43.7809
    44.6509  44.6558  44.6573  44.6609  44.6634  44.6679  44.6711  44.6755
    49.0371  49.0519  49.0621  49.0650  49.0670  49.0793  49.0873  49.0889
    51.4705  51.4811  51.4847  51.4938  52.8241  52.8364  52.8413  52.8514
    53.2498  53.2550  53.2599  53.2645  53.2721  53.2772  53.2853  53.2951
    54.7034  54.7066

          k =-0.5000 0.5000 0.1667 (  4724 PWs)   bands (ev):

    33.4058  33.4070  33.4174  33.4229  37.4089  37.4100  37.4196  37.4247
    40.4161  40.4170  40.4244  40.4285  41.5628  41.5658  41.5720  41.5798
    41.5825  41.5925  41.5948  41.5966  43.7750  43.7763  43.7789  43.7794
    44.6504  44.6512  44.6571  44.6626  44.6642  44.6708  44.6719  44.6746
    49.0476  49.0531  49.0613  49.0648  49.0665  49.0743  49.0819  49.0892
    51.4748  51.4787  51.4871  51.4894  52.8290  52.8342  52.8439  52.8466
    53.2450  53.2556  53.2624  53.2644  53.2710  53.2804  53.2839  53.2959
    54.7018  54.7034

     the Fermi energy is    52.4381 ev

!    total energy              =   -1129.99189804 Ry
     Harris-Foulkes estimate   =   -1129.99189836 Ry
     estimated scf accuracy    <       0.00000065 Ry

     total all-electron energy =    -15406.560920 Ry

     The total energy is the sum of the following terms:

     one-electron contribution =     469.25394827 Ry
     hartree contribution      =       1.72726644 Ry
     xc contribution           =    -138.28552508 Ry
     ewald contribution        =    -326.84024986 Ry
     one-center paw contrib.   =   -1135.85463061 Ry
     smearing contrib. (-TS)   =       0.00729280 Ry

     convergence has been achieved in  17 iterations

     Forces acting on atoms (cartesian axes, Ry/au):

     atom    1 type  1   force =    -0.00192572   -0.00651701    0.00142921
     atom    2 type  1   force =    -0.00468954   -0.00701628    0.01548465
     atom    3 type  1   force =     0.01478378    0.00231696   -0.01918910
     atom    4 type  1   force =    -0.00811676    0.00673212   -0.02562333
     atom    5 type  1   force =    -0.01262920   -0.01093871    0.01622828
     atom    6 type  1   force =    -0.00980725    0.00649184   -0.00950379
     atom    7 type  1   force =    -0.01746455   -0.03119567    0.01122007
     atom    8 type  1   force =    -0.00729008    0.01404713   -0.00189250
     atom    9 type  1   force =     0.02698002    0.00589067   -0.00266002
     atom   10 type  1   force =    -0.00413153    0.01628840   -0.02401348
     atom   11 type  1   force =    -0.00781017   -0.01959224   -0.00914818
     atom   12 type  1   force =    -0.01740512   -0.00807011   -0.01138100
     atom   13 type  1   force =    -0.00421103   -0.01801216    0.00799280
     atom   14 type  1   force =    -0.01197611    0.02319141    0.01778084
     atom   15 type  1   force =    -0.01232025    0.01564605    0.01359036
     atom   16 type  1   force =     0.02255365    0.00774156    0.01625333
     atom   17 type  1   force =    -0.01689468   -0.00800407   -0.00238884
     atom   18 type  1   force =     0.00944182   -0.00279346    0.01385832
     atom   19 type  1   force =     0.01579257    0.01679890   -0.00132733
     atom   20 type  1   force =     0.00914742    0.02532534   -0.01187549
     atom   21 type  1   force =     0.00293682   -0.01987726    0.01063351
     atom   22 type  1   force =    -0.00219748    0.02066011    0.01141284
     atom   23 type  1   force =     0.01446802   -0.01093553   -0.01412691
     atom   24 type  1   force =     0.01492594    0.00299312    0.00643606
     atom   25 type  1   force =    -0.01976737    0.00132614    0.00358279
     atom   26 type  1   force =     0.00828403   -0.00799636    0.00842784
     atom   27 type  1   force =    -0.01004655   -0.01218131    0.00421241
     atom   28 type  1   force =     0.00702554   -0.00351390    0.00943771
     atom   29 type  1   force =     0.03649971   -0.01984007    0.00441497
     atom   30 type  1   force =    -0.00189761    0.00954593   -0.00567757
     atom   31 type  1   force =    -0.01313380   -0.00430177   -0.01800016
     atom   32 type  1   force =     0.00087551    0.01579020   -0.01558831

     Total force =     0.132106     Total SCF correction =     0.000483


     Computing stress (Cartesian axis) and pressure

          total   stress  (Ry/bohr**3)                   (kbar)     P=59638.00
   0.40540754   0.00000190  -0.00000521      59637.50      0.28     -0.77
   0.00000190   0.40541466   0.00000056          0.28  59638.55      0.08
  -0.00000521   0.00000056   0.40541066         -0.77      0.08  59637.96


     Writing output data file fe_scf_fcc_2.save/
 
     init_run     :      0.72s CPU      0.82s WALL (       1 calls)
     electrons    :     19.22s CPU     20.10s WALL (       1 calls)
     forces       :      0.14s CPU      0.16s WALL (       1 calls)
     stress       :      0.23s CPU      0.24s WALL (       1 calls)

     Called by init_run:
     wfcinit      :      0.62s CPU      0.67s WALL (       1 calls)
     potinit      :      0.07s CPU      0.09s WALL (       1 calls)
     hinit0       :      0.02s CPU      0.04s WALL (       1 calls)

     Called by electrons:
     c_bands      :     16.53s CPU     17.20s WALL (      17 calls)
     sum_band     :      1.50s CPU      1.62s WALL (      17 calls)
     v_of_rho     :      0.04s CPU      0.05s WALL (      18 calls)
     newd         :      0.03s CPU      0.03s WALL (      18 calls)
     PAW_pot      :      1.13s CPU      1.14s WALL (      18 calls)
     mix_rho      :      0.02s CPU      0.02s WALL (      17 calls)

     Called by c_bands:
     init_us_2    :      0.14s CPU      0.15s WALL (     518 calls)
     cegterg      :     15.95s CPU     16.61s WALL (     238 calls)

     Called by sum_band:
     sum_band:bec :      0.03s CPU      0.03s WALL (     238 calls)
     addusdens    :      0.02s CPU      0.02s WALL (      17 calls)

     Called by *egterg:
     h_psi        :      7.32s CPU      7.84s WALL (    1054 calls)
     s_psi        :      0.66s CPU      0.67s WALL (    1054 calls)
     g_psi        :      0.04s CPU      0.04s WALL (     802 calls)
     cdiaghg      :      6.67s CPU      6.70s WALL (    1040 calls)

     Called by h_psi:
     h_psi:pot    :      7.29s CPU      7.80s WALL (    1054 calls)
     h_psi:calbec :      0.95s CPU      1.12s WALL (    1054 calls)
     vloc_psi     :      5.62s CPU      5.97s WALL (    1054 calls)
     add_vuspsi   :      0.70s CPU      0.71s WALL (    1054 calls)

     General routines
     calbec       :      1.34s CPU      1.59s WALL (    1362 calls)
     fft          :      0.04s CPU      0.07s WALL (     224 calls)
     ffts         :      0.00s CPU      0.00s WALL (      17 calls)
     fftw         :      6.26s CPU      6.62s WALL (   89472 calls)
 
     Parallel routines
     fft_scatt_xy :      0.47s CPU      0.50s WALL (   89713 calls)
     fft_scatt_yz :      3.87s CPU      4.10s WALL (   89713 calls)
 
     PWSCF        :    20.96s CPU        22.99s WALL

 
   This run was terminated on:  23:44: 3  22Oct2019            

=------------------------------------------------------------------------------=
   JOB DONE.
=------------------------------------------------------------------------------=
