
     Program PWSCF v.6.3 starts on 22Oct2019 at 23:59:45 

     This program is part of the open-source Quantum ESPRESSO suite
     for quantum simulation of materials; please cite
         "P. Giannozzi et al., J. Phys.:Condens. Matter 21 395502 (2009);
         "P. Giannozzi et al., J. Phys.:Condens. Matter 29 465901 (2017);
          URL http://www.quantum-espresso.org", 
     in publications or presentations arising from this work. More details at
     http://www.quantum-espresso.org/quote

     Parallel version (MPI & OpenMP), running on      20 processor cores
     Number of MPI processes:                20
     Threads/MPI process:                     1

     MPI processes distributed on     1 nodes
     R & G space division:  proc/nbgrp/npool/nimage =      20
     Reading input from /rds/homes/b/bxp912/jobs/20191022_test2/wd/runpwscf/file_10246.in
Warning: card &IONS ignored
Warning: card ION_DYNAMICS = 'BFGS', ignored
Warning: card / ignored
Warning: card &CELL ignored
Warning: card CELL_DYNAMICS = 'BFGS', ignored
Warning: card CELL_FACTOR = 2.0, ignored
Warning: card PRESS = 0.0, ignored
Warning: card / ignored

     Current dimensions of program PWSCF are:
     Max number of different atomic species (ntypx) = 10
     Max number of k-points (npk) =  40000
     Max angular momentum in pseudopotentials (lmaxx) =  3
     Message from routine read_upf::
     Pseudo file /rds/homes/b/bxp912/pp/Al.pbe-nl-kjpaw_psl.1.0.0.UPF has been successfully fixed on the fly.
To avoid this message in the future you can permanently fix 
 your pseudo files following instructions given in: 
https://gitlab.com/QEF/q-e/blob/master/upftools/how_to_fix_upf.md
               file Al.pbe-nl-kjpaw_psl.1.0.0.UPF: wavefunction(s)  3S 3P renormalized

     Subspace diagonalization in iterative solution of the eigenvalue problem:
     a serial algorithm will be used

 
     Parallelization info
     --------------------
     sticks:   dense  smooth     PW     G-vecs:    dense   smooth      PW
     Min          52      52     20                 1262     1262     300
     Max          53      53     21                 1265     1265     303
     Sum        1041    1041    401                25269    25269    6031
 


     bravais-lattice index     =            0
     lattice parameter (alat)  =       8.0800  a.u.
     unit-cell volume          =     527.5141 (a.u.)^3
     number of atoms/cell      =           32
     number of atomic types    =            1
     number of electrons       =        96.00
     number of Kohn-Sham states=           58
     kinetic-energy cutoff     =      66.0000  Ry
     charge density cutoff     =     200.0000  Ry
     convergence threshold     =      1.0E-06
     mixing beta               =       0.1000
     number of iterations used =           10  TF        mixing
     Exchange-correlation      = SLA PW PBX PBC ( 1  4  3  4 0 0)

     celldm(1)=   8.080000  celldm(2)=   0.000000  celldm(3)=   0.000000
     celldm(4)=   0.000000  celldm(5)=   0.000000  celldm(6)=   0.000000

     crystal axes: (cart. coord. in units of alat)
               a(1) = (   1.000000   0.000000   0.000000 )  
               a(2) = (   0.000000   1.000000   0.000000 )  
               a(3) = (   0.000000   0.000000   1.000000 )  

     reciprocal axes: (cart. coord. in units 2 pi/alat)
               b(1) = (  1.000000  0.000000  0.000000 )  
               b(2) = (  0.000000  1.000000  0.000000 )  
               b(3) = (  0.000000  0.000000  1.000000 )  


     PseudoPot. # 1 for Al read from file:
     /rds/homes/b/bxp912/pp/Al.pbe-nl-kjpaw_psl.1.0.0.UPF
     MD5 check sum: 339dbea23cf3ab9a065ad45c0f9085d7
     Pseudo is Projector augmented-wave + core cor, Zval =  3.0
     Generated using "atomic" code by A. Dal Corso v.5.1
     Shape of augmentation charge: PSQ
     Using radial grid of 1135 points,  4 beta functions with: 
                l(1) =   0
                l(2) =   0
                l(3) =   1
                l(4) =   1
     Q(r) pseudized with 0 coefficients 


     atomic species   valence    mass     pseudopotential
        Al             3.00    26.98200     Al( 1.00)

     No symmetry found



   Cartesian axes

     site n.     atom                  positions (alat units)
         1           Al  tau(   1) = (  -0.0000618   0.0000180   0.0001286  )
         2           Al  tau(   2) = (   0.2501504   0.2496409   0.0001329  )
         3           Al  tau(   3) = (   0.2498245   0.0000576   0.2505585  )
         4           Al  tau(   4) = (  -0.0000378   0.2504134   0.2503472  )
         5           Al  tau(   5) = (   0.0004835   0.0004765   0.4997751  )
         6           Al  tau(   6) = (   0.2502257   0.2496836   0.5000068  )
         7           Al  tau(   7) = (   0.2500525   0.0002908   0.7497884  )
         8           Al  tau(   8) = (   0.0001038   0.2502148   0.7503971  )
         9           Al  tau(   9) = (   0.0004488   0.5002037  -0.0000292  )
        10           Al  tau(  10) = (   0.2502638   0.7503330   0.0007661  )
        11           Al  tau(  11) = (   0.2503574   0.5002057   0.2504745  )
        12           Al  tau(  12) = (   0.0000725   0.7500861   0.2500479  )
        13           Al  tau(  13) = (   0.0002082   0.5002952   0.5001871  )
        14           Al  tau(  14) = (   0.2499320   0.7501195   0.4997555  )
        15           Al  tau(  15) = (   0.2506361   0.4996019   0.7494255  )
        16           Al  tau(  16) = (  -0.0006199   0.7494434   0.7499870  )
        17           Al  tau(  17) = (   0.5003850  -0.0001898  -0.0000732  )
        18           Al  tau(  18) = (   0.7498343   0.2501778  -0.0004407  )
        19           Al  tau(  19) = (   0.7493109  -0.0001812   0.2501458  )
        20           Al  tau(  20) = (   0.4999530   0.2499270   0.2496819  )
        21           Al  tau(  21) = (   0.4998509   0.0005536   0.4999482  )
        22           Al  tau(  22) = (   0.7501292   0.2494251   0.4999098  )
        23           Al  tau(  23) = (   0.7500676  -0.0001298   0.7500485  )
        24           Al  tau(  24) = (   0.5000215   0.2497853   0.7499902  )
        25           Al  tau(  25) = (   0.4997214   0.5002185  -0.0004144  )
        26           Al  tau(  26) = (   0.7495697   0.7501849   0.0005172  )
        27           Al  tau(  27) = (   0.7501903   0.4996254   0.2498983  )
        28           Al  tau(  28) = (   0.5001659   0.7496046   0.2503955  )
        29           Al  tau(  29) = (   0.4993878   0.5001941   0.5000764  )
        30           Al  tau(  30) = (   0.7503133   0.7499759   0.4997253  )
        31           Al  tau(  31) = (   0.7499001   0.5000179   0.7502634  )
        32           Al  tau(  32) = (   0.5000268   0.7499029   0.7498445  )

     number of k points=    63  Marzari-Vanderbilt smearing, width (Ry)=  0.0400
                       cart. coord. in units 2pi/alat
        k(    1) = (   0.1000000   0.1000000   0.1000000), wk =   0.0320000
        k(    2) = (   0.1000000   0.1000000   0.3000000), wk =   0.0320000
        k(    3) = (   0.1000000   0.1000000  -0.5000000), wk =   0.0320000
        k(    4) = (   0.1000000   0.3000000   0.3000000), wk =   0.0320000
        k(    5) = (   0.1000000   0.3000000  -0.5000000), wk =   0.0320000
        k(    6) = (   0.1000000  -0.5000000  -0.5000000), wk =   0.0320000
        k(    7) = (   0.3000000   0.3000000   0.3000000), wk =   0.0320000
        k(    8) = (   0.3000000   0.3000000  -0.5000000), wk =   0.0320000
        k(    9) = (   0.3000000  -0.5000000  -0.5000000), wk =   0.0320000
        k(   10) = (  -0.5000000  -0.5000000  -0.5000000), wk =   0.0160000
        k(   11) = (  -0.1000000  -0.1000000   0.1000000), wk =   0.0320000
        k(   12) = (  -0.1000000   0.1000000  -0.1000000), wk =   0.0320000
        k(   13) = (   0.1000000  -0.1000000  -0.1000000), wk =   0.0320000
        k(   14) = (  -0.1000000  -0.1000000   0.3000000), wk =   0.0320000
        k(   15) = (  -0.1000000   0.1000000  -0.3000000), wk =   0.0320000
        k(   16) = (   0.1000000  -0.1000000  -0.3000000), wk =   0.0320000
        k(   17) = (   0.3000000  -0.1000000   0.1000000), wk =   0.0320000
        k(   18) = (  -0.3000000  -0.1000000  -0.1000000), wk =   0.0320000
        k(   19) = (   0.3000000   0.1000000  -0.1000000), wk =   0.0320000
        k(   20) = (  -0.3000000   0.1000000   0.1000000), wk =   0.0320000
        k(   21) = (  -0.1000000   0.3000000   0.1000000), wk =   0.0320000
        k(   22) = (  -0.1000000  -0.3000000  -0.1000000), wk =   0.0320000
        k(   23) = (   0.1000000   0.3000000  -0.1000000), wk =   0.0320000
        k(   24) = (   0.1000000  -0.3000000   0.1000000), wk =   0.0320000
        k(   25) = (  -0.1000000   0.1000000   0.5000000), wk =   0.0320000
        k(   26) = (  -0.5000000  -0.1000000   0.1000000), wk =   0.0320000
        k(   27) = (   0.5000000  -0.1000000  -0.1000000), wk =   0.0320000
        k(   28) = (  -0.1000000  -0.5000000   0.1000000), wk =   0.0320000
        k(   29) = (  -0.1000000   0.5000000  -0.1000000), wk =   0.0320000
        k(   30) = (  -0.1000000  -0.3000000   0.3000000), wk =   0.0320000
        k(   31) = (  -0.1000000   0.3000000  -0.3000000), wk =   0.0320000
        k(   32) = (   0.1000000  -0.3000000  -0.3000000), wk =   0.0320000
        k(   33) = (   0.3000000   0.1000000  -0.3000000), wk =   0.0320000
        k(   34) = (  -0.3000000  -0.1000000  -0.3000000), wk =   0.0320000
        k(   35) = (   0.3000000  -0.1000000   0.3000000), wk =   0.0320000
        k(   36) = (  -0.3000000   0.1000000   0.3000000), wk =   0.0320000
        k(   37) = (   0.3000000  -0.3000000   0.1000000), wk =   0.0320000
        k(   38) = (  -0.3000000  -0.3000000  -0.1000000), wk =   0.0320000
        k(   39) = (   0.3000000   0.3000000  -0.1000000), wk =   0.0320000
        k(   40) = (  -0.3000000   0.3000000   0.1000000), wk =   0.0320000
        k(   41) = (  -0.1000000   0.3000000   0.5000000), wk =   0.0320000
        k(   42) = (   0.3000000   0.1000000   0.5000000), wk =   0.0320000
        k(   43) = (   0.3000000  -0.1000000  -0.5000000), wk =   0.0320000
        k(   44) = (  -0.5000000  -0.3000000   0.1000000), wk =   0.0320000
        k(   45) = (   0.5000000  -0.3000000  -0.1000000), wk =   0.0320000
        k(   46) = (  -0.1000000  -0.5000000   0.3000000), wk =   0.0320000
        k(   47) = (  -0.1000000   0.5000000  -0.3000000), wk =   0.0320000
        k(   48) = (   0.3000000  -0.5000000   0.1000000), wk =   0.0320000
        k(   49) = (   0.3000000   0.5000000  -0.1000000), wk =   0.0320000
        k(   50) = (  -0.5000000   0.1000000   0.3000000), wk =   0.0320000
        k(   51) = (   0.5000000  -0.1000000   0.3000000), wk =   0.0320000
        k(   52) = (  -0.5000000   0.1000000   0.5000000), wk =   0.0320000
        k(   53) = (  -0.5000000   0.5000000   0.1000000), wk =   0.0320000
        k(   54) = (  -0.3000000  -0.3000000   0.3000000), wk =   0.0320000
        k(   55) = (  -0.3000000   0.3000000  -0.3000000), wk =   0.0320000
        k(   56) = (   0.3000000  -0.3000000  -0.3000000), wk =   0.0320000
        k(   57) = (  -0.3000000   0.3000000   0.5000000), wk =   0.0320000
        k(   58) = (  -0.5000000  -0.3000000   0.3000000), wk =   0.0320000
        k(   59) = (   0.5000000  -0.3000000  -0.3000000), wk =   0.0320000
        k(   60) = (  -0.3000000  -0.5000000   0.3000000), wk =   0.0320000
        k(   61) = (  -0.3000000   0.5000000  -0.3000000), wk =   0.0320000
        k(   62) = (  -0.5000000   0.3000000   0.5000000), wk =   0.0320000
        k(   63) = (  -0.5000000   0.5000000   0.3000000), wk =   0.0320000

     Dense  grid:    25269 G-vectors     FFT dimensions: (  40,  40,  40)

     Estimated max dynamical RAM per process >      20.87 MB

     Estimated total dynamical RAM >     417.35 MB

     Initial potential from superposition of free atoms

     starting charge   95.92671, renormalised to   96.00000
     Starting wfcs are  128 randomized atomic wfcs
     Checking if some PAW data can be deallocated... 

     total cpu time spent up to now is        3.3 secs

     Self-consistent Calculation

     iteration #  1     ecut=    66.00 Ry     beta= 0.10
     Davidson diagonalization with overlap
     ethr =  1.00E-02,  avg # of iterations =  5.0

     total cpu time spent up to now is       11.2 secs

     total energy              =   -1133.15146097 Ry
     Harris-Foulkes estimate   =   -1134.40310288 Ry
     estimated scf accuracy    <       1.41252701 Ry

     iteration #  2     ecut=    66.00 Ry     beta= 0.10
     Davidson diagonalization with overlap
     ethr =  1.47E-03,  avg # of iterations =  4.0

     total cpu time spent up to now is       15.9 secs

     total energy              =   -1129.72640591 Ry
     Harris-Foulkes estimate   =   -1133.29043769 Ry
     estimated scf accuracy    <       1.22874804 Ry

     iteration #  3     ecut=    66.00 Ry     beta= 0.10
     Davidson diagonalization with overlap
     ethr =  1.28E-03,  avg # of iterations =  4.0

     total cpu time spent up to now is       22.5 secs

     total energy              =   -1130.34620023 Ry
     Harris-Foulkes estimate   =   -1130.86622414 Ry
     estimated scf accuracy    <       0.23774343 Ry

     iteration #  4     ecut=    66.00 Ry     beta= 0.10
     Davidson diagonalization with overlap
     ethr =  2.48E-04,  avg # of iterations =  2.2

     total cpu time spent up to now is       26.0 secs

     total energy              =   -1129.99591703 Ry
     Harris-Foulkes estimate   =   -1130.35864360 Ry
     estimated scf accuracy    <       0.14981271 Ry

     iteration #  5     ecut=    66.00 Ry     beta= 0.10
     Davidson diagonalization with overlap
     ethr =  1.56E-04,  avg # of iterations =  3.7

     total cpu time spent up to now is       32.0 secs

     total energy              =   -1130.06131725 Ry
     Harris-Foulkes estimate   =   -1130.05604184 Ry
     estimated scf accuracy    <       0.01524068 Ry

     iteration #  6     ecut=    66.00 Ry     beta= 0.10
     Davidson diagonalization with overlap
     ethr =  1.59E-05,  avg # of iterations =  4.9

     total cpu time spent up to now is       37.2 secs

     total energy              =   -1130.04659451 Ry
     Harris-Foulkes estimate   =   -1130.06292042 Ry
     estimated scf accuracy    <       0.01417733 Ry

     iteration #  7     ecut=    66.00 Ry     beta= 0.10
     Davidson diagonalization with overlap
     ethr =  1.48E-05,  avg # of iterations =  1.0

     total cpu time spent up to now is       40.3 secs

     total energy              =   -1130.02675579 Ry
     Harris-Foulkes estimate   =   -1130.04697051 Ry
     estimated scf accuracy    <       0.00760728 Ry

     iteration #  8     ecut=    66.00 Ry     beta= 0.10
     Davidson diagonalization with overlap
     ethr =  7.92E-06,  avg # of iterations =  4.1

     total cpu time spent up to now is       45.2 secs

     total energy              =   -1130.02436111 Ry
     Harris-Foulkes estimate   =   -1130.02809149 Ry
     estimated scf accuracy    <       0.00024886 Ry

     iteration #  9     ecut=    66.00 Ry     beta= 0.10
     Davidson diagonalization with overlap
     c_bands:  2 eigenvalues not converged
     c_bands:  1 eigenvalues not converged
     c_bands:  2 eigenvalues not converged
     c_bands:  1 eigenvalues not converged
     c_bands:  2 eigenvalues not converged
     c_bands:  1 eigenvalues not converged
     c_bands:  1 eigenvalues not converged
     c_bands:  2 eigenvalues not converged
     c_bands:  3 eigenvalues not converged
     c_bands:  1 eigenvalues not converged
     c_bands:  1 eigenvalues not converged
     c_bands:  1 eigenvalues not converged
     ethr =  2.59E-07,  avg # of iterations = 12.1

     total cpu time spent up to now is       56.3 secs

     total energy              =   -1130.04213762 Ry
     Harris-Foulkes estimate   =   -1130.04221805 Ry
     estimated scf accuracy    <       0.00024526 Ry

     iteration # 10     ecut=    66.00 Ry     beta= 0.10
     Davidson diagonalization with overlap
     ethr =  2.55E-07,  avg # of iterations =  2.2

     total cpu time spent up to now is       60.0 secs

     total energy              =   -1130.04045474 Ry
     Harris-Foulkes estimate   =   -1130.04213833 Ry
     estimated scf accuracy    <       0.00025538 Ry

     iteration # 11     ecut=    66.00 Ry     beta= 0.10
     Davidson diagonalization with overlap
     ethr =  2.55E-07,  avg # of iterations =  2.3

     total cpu time spent up to now is       64.2 secs

     total energy              =   -1130.03965050 Ry
     Harris-Foulkes estimate   =   -1130.04048797 Ry
     estimated scf accuracy    <       0.00004176 Ry

     iteration # 12     ecut=    66.00 Ry     beta= 0.10
     Davidson diagonalization with overlap
     ethr =  4.35E-08,  avg # of iterations =  4.9

     total cpu time spent up to now is       72.5 secs

     total energy              =   -1130.03939963 Ry
     Harris-Foulkes estimate   =   -1130.03971415 Ry
     estimated scf accuracy    <       0.00033960 Ry

     iteration # 13     ecut=    66.00 Ry     beta= 0.10
     Davidson diagonalization with overlap
     ethr =  4.35E-08,  avg # of iterations =  4.3

     total cpu time spent up to now is       79.5 secs

     total energy              =   -1130.03903555 Ry
     Harris-Foulkes estimate   =   -1130.03942195 Ry
     estimated scf accuracy    <       0.00101270 Ry

     iteration # 14     ecut=    66.00 Ry     beta= 0.10
     Davidson diagonalization with overlap
     ethr =  4.35E-08,  avg # of iterations =  4.7

     total cpu time spent up to now is       87.6 secs

     total energy              =   -1130.03912634 Ry
     Harris-Foulkes estimate   =   -1130.03912585 Ry
     estimated scf accuracy    <       0.00000659 Ry

     iteration # 15     ecut=    66.00 Ry     beta= 0.10
     Davidson diagonalization with overlap
     ethr =  6.86E-09,  avg # of iterations =  1.1

     total cpu time spent up to now is       90.6 secs

     total energy              =   -1130.03912577 Ry
     Harris-Foulkes estimate   =   -1130.03912658 Ry
     estimated scf accuracy    <       0.00000958 Ry

     iteration # 16     ecut=    66.00 Ry     beta= 0.10
     Davidson diagonalization with overlap
     ethr =  6.86E-09,  avg # of iterations =  1.0

     total cpu time spent up to now is       93.6 secs

     total energy              =   -1130.03912628 Ry
     Harris-Foulkes estimate   =   -1130.03912617 Ry
     estimated scf accuracy    <       0.00000587 Ry

     iteration # 17     ecut=    66.00 Ry     beta= 0.10
     Davidson diagonalization with overlap
     ethr =  6.11E-09,  avg # of iterations =  2.7

     total cpu time spent up to now is       97.3 secs

     End of self-consistent calculation

          k = 0.1000 0.1000 0.1000 (  4785 PWs)   bands (ev):

    29.6286  35.1246  35.1358  35.1449  37.0416  37.0508  37.0583  39.6232
    39.6338  39.6422  40.8565  40.8589  40.8611  41.2602  41.2665  41.2685
    41.2741  41.2843  41.2851  42.6997  42.7070  42.7130  43.0646  44.2848
    44.2880  44.2938  44.2976  44.3031  44.3093  44.6165  44.6276  44.6383
    46.2169  46.2284  46.2397  47.7213  52.1395  52.1418  52.1443  52.7679
    52.7693  52.7712  52.7720  52.7740  52.7755  53.4239  53.4254  53.4277
    53.4300  53.4314  53.4332  53.7639  53.7650  53.7656  54.4515  54.4532
    54.4544  54.7105

          k = 0.1000 0.1000 0.3000 (  4773 PWs)   bands (ev):

    30.2922  33.2204  35.6647  35.6691  37.5643  37.5681  38.0396  38.0437
    38.7215  39.8163  39.8204  40.0118  40.6110  41.4484  41.4505  41.6559
    41.6630  41.7670  42.7428  42.7457  43.1161  43.4002  43.4100  43.5625
    43.5637  43.8760  43.8776  44.2336  44.2348  44.4883  44.4910  44.9379
    46.4882  47.9438  47.9549  49.4688  51.1130  52.1959  52.1983  52.3181
    52.3220  52.3632  52.3710  52.5262  52.5274  52.5777  52.5786  52.7705
    52.8519  52.8523  53.6356  53.6388  53.7484  53.7510  53.8353  53.9445
    53.9463  54.1360

          k = 0.1000 0.1000-0.5000 (  4804 PWs)   bands (ev):

    31.5341  31.5444  36.6630  36.6695  36.6755  36.6786  38.5231  38.5282
    38.5333  38.5366  39.9308  39.9428  40.7327  40.7402  42.3837  42.3921
    42.3940  42.3991  42.4605  42.4617  42.4639  42.4664  43.7768  43.7790
    43.7880  43.7909  43.8845  43.8889  44.4834  44.4851  44.4923  44.4943
    48.6359  48.6540  49.9897  50.0025  50.0128  50.0199  51.5075  51.5232
    52.2516  52.2583  52.2659  52.2733  52.3195  52.3217  52.3245  52.3265
    52.8331  52.8471  52.8545  52.8655  54.0169  54.0430  54.0755  54.0762
    54.0773  54.0780

          k = 0.1000 0.3000 0.3000 (  4792 PWs)   bands (ev):

    30.9349  33.7793  33.7926  36.1711  36.3268  38.0562  38.4441  38.4560
    39.2424  39.2483  40.2183  40.2291  40.3603  41.1824  41.1923  41.4331
    41.4469  42.0218  42.0750  43.1758  43.1817  43.3360  43.3448  43.9722
    43.9759  44.3076  44.3111  44.5347  44.5446  44.5480  45.0539  45.0694
    46.8525  46.8686  49.6493  50.2236  50.2288  51.1704  51.1743  51.2056
    51.2168  51.2516  52.0560  52.0867  52.0937  52.1204  52.6812  52.6825
    52.7403  52.7516  53.7600  53.7696  53.9902  53.9908  54.2515  54.3076
    54.3287  54.5330

          k = 0.1000 0.3000-0.5000 (  4754 PWs)   bands (ev):

    32.1406  32.1510  34.8531  34.8632  37.1246  37.1340  38.9733  38.9809
    39.2339  39.2430  40.2019  40.2077  40.4805  40.4926  40.9927  41.0001
    42.1928  42.1936  42.6600  42.6717  42.9858  42.9892  43.9861  43.9899
    44.2172  44.2276  44.4789  44.4848  44.7809  44.7879  45.0495  45.0499
    47.9006  47.9176  48.8920  48.9094  50.1999  50.2120  50.7090  50.7214
    51.5924  51.6084  51.7658  51.7780  52.0400  52.0474  52.7127  52.7172
    53.2494  53.2640  53.2735  53.2880  53.8495  53.8740  54.1252  54.1263
    54.3174  54.3247

          k = 0.1000-0.5000-0.5000 (  4740 PWs)   bands (ev):

    33.2827  33.2889  33.2983  33.3029  37.9976  38.0031  38.0114  38.0154
    39.8183  39.8229  39.8302  39.8336  41.4477  41.4561  41.4672  41.4687
    41.4709  41.4744  41.4798  41.4878  43.8131  43.8146  43.8174  43.8194
    44.8950  44.8977  44.9048  44.9059  44.9071  44.9100  44.9118  44.9160
    48.8002  48.8104  48.8140  48.8220  48.8263  48.8318  48.8356  48.8470
    51.7361  51.7403  51.7483  51.7539  53.3696  53.3738  53.3804  53.3872
    53.5653  53.5696  53.5808  53.5844  53.5933  53.6001  53.6080  53.6166
    54.1909  54.1922

          k = 0.3000 0.3000 0.3000 (  4788 PWs)   bands (ev):

    31.5552  34.3139  34.3257  34.3352  36.7600  36.7714  36.7806  38.8473
    39.7433  39.7486  39.7529  41.7421  41.7485  41.7547  41.8703  41.8746
    41.8778  41.8839  41.8903  41.8926  43.7897  43.7949  43.7979  43.8013
    43.8028  43.8087  43.8139  43.8226  43.8296  44.8383  44.8393  44.8406
    48.4399  48.4518  48.4636  49.7957  49.8021  49.8073  51.4780  51.4794
    51.4816  51.4851  51.4908  51.4967  52.3588  52.3641  52.3665  52.3706
    52.3831  52.3882  52.4223  52.4287  52.4375  53.1027  54.7217  54.7276
    54.7340  55.3085

          k = 0.3000 0.3000-0.5000 (  4758 PWs)   bands (ev):

    32.7227  32.7330  35.3426  35.3494  35.3560  35.3589  37.6239  37.6333
    40.6697  40.6729  40.6760  40.6796  41.0145  41.0266  42.6966  42.7040
    42.7064  42.7111  42.7202  42.7213  42.7247  42.7285  43.1414  43.1432
    43.1527  43.1559  44.4887  44.4910  44.4933  44.4980  44.9311  44.9391
    48.2779  48.2897  50.2920  50.3116  50.3133  50.3230  50.3381  50.3432
    50.3519  50.3627  51.5157  51.5304  51.5381  51.5505  51.9463  51.9535
    51.9552  51.9594  53.2593  53.2815  53.5640  53.5736  53.5770  53.5860
    55.2172  55.2286

          k = 0.3000-0.5000-0.5000 (  4772 PWs)   bands (ev):

    33.8230  33.8291  33.8385  33.8431  36.2896  36.2955  36.3045  36.3089
    41.5416  41.5449  41.5503  41.5528  41.9566  41.9651  41.9766  41.9780
    41.9800  41.9839  41.9893  41.9974  43.6140  43.6144  43.6153  43.6161
    43.9820  43.9892  44.0008  44.0017  44.0032  44.0080  44.0117  44.0199
    49.7309  49.7363  49.7442  49.7530  49.7603  49.7620  49.7684  49.7764
    51.0344  51.0382  51.0451  51.0492  51.8989  51.9021  51.9103  51.9155
    52.4060  52.4086  52.4137  52.4210  52.4329  52.4341  52.4429  52.4438
    56.0461  56.0538

          k =-0.5000-0.5000-0.5000 (  4776 PWs)   bands (ev):

    34.8442  34.8550  34.8568  34.8644  34.8685  34.8709  34.8824  34.8855
    42.8568  42.8603  42.8657  42.8721  42.8782  42.8801  42.8817  42.8824
    42.8841  42.8855  42.8878  42.8895  42.8937  42.8979  42.8990  42.9028
    42.9041  42.9079  42.9090  42.9153  42.9186  42.9205  42.9224  42.9282
    50.9919  51.0043  51.0088  51.0144  51.0168  51.0213  51.0263  51.0302
    51.0315  51.0341  51.0354  51.0378  51.0418  51.0434  51.0464  51.0534
    51.0550  51.0623  51.0626  51.0690  51.0730  51.0778  51.0842  51.0859
    58.6616  58.6656

          k =-0.1000-0.1000 0.1000 (  4785 PWs)   bands (ev):

    29.6286  35.1265  35.1358  35.1430  37.0431  37.0509  37.0567  39.6250
    39.6338  39.6404  40.8575  40.8588  40.8603  41.2543  41.2644  41.2697
    41.2710  41.2843  41.2951  42.7007  42.7070  42.7118  43.0645  44.2849
    44.2884  44.2941  44.2977  44.3027  44.3090  44.6209  44.6273  44.6340
    46.2214  46.2283  46.2353  47.7214  52.1404  52.1420  52.1433  52.7680
    52.7695  52.7701  52.7722  52.7749  52.7754  53.4230  53.4262  53.4285
    53.4293  53.4303  53.4331  53.7642  53.7654  53.7662  54.4521  54.4529
    54.4539  54.7039

          k =-0.1000 0.1000-0.1000 (  4785 PWs)   bands (ev):

    29.6286  35.1254  35.1351  35.1448  37.0422  37.0503  37.0582  39.6240
    39.6330  39.6421  40.8564  40.8588  40.8614  41.2521  41.2619  41.2728
    41.2775  41.2854  41.2892  42.7002  42.7065  42.7129  43.0645  44.2850
    44.2890  44.2934  44.2981  44.3028  44.3084  44.6158  44.6275  44.6392
    46.2161  46.2283  46.2406  47.7213  52.1393  52.1418  52.1445  52.7686
    52.7694  52.7707  52.7722  52.7737  52.7751  53.4251  53.4263  53.4280
    53.4290  53.4311  53.4319  53.7643  53.7649  53.7659  54.4515  54.4530
    54.4547  54.7015

          k = 0.1000-0.1000-0.1000 (  4785 PWs)   bands (ev):

    29.6286  35.1242  35.1375  35.1437  37.0411  37.0523  37.0572  39.6229
    39.6354  39.6410  40.8561  40.8588  40.8617  41.2530  41.2653  41.2713
    41.2757  41.2829  41.2905  42.6992  42.7081  42.7122  43.0647  44.2854
    44.2882  44.2928  44.2979  44.3030  44.3093  44.6146  44.6275  44.6405
    46.2147  46.2283  46.2420  47.7212  52.1390  52.1420  52.1447  52.7678
    52.7686  52.7706  52.7732  52.7743  52.7756  53.4244  53.4258  53.4270
    53.4290  53.4306  53.4327  53.7637  53.7656  53.7673  54.4513  54.4530
    54.4549  54.7009

          k =-0.1000-0.1000 0.3000 (  4773 PWs)   bands (ev):

    30.2922  33.2204  35.6647  35.6691  37.5644  37.5680  38.0395  38.0438
    38.7214  39.8167  39.8203  40.0114  40.6111  41.4483  41.4505  41.6551
    41.6637  41.7672  42.7431  42.7457  43.1159  43.4005  43.4101  43.5622
    43.5639  43.8759  43.8774  44.2336  44.2347  44.4882  44.4909  44.9380
    46.4882  47.9438  47.9549  49.4688  51.1129  52.1963  52.1978  52.3153
    52.3220  52.3634  52.3739  52.5262  52.5276  52.5774  52.5784  52.7709
    52.8515  52.8524  53.6358  53.6385  53.7498  53.7513  53.8341  53.9446
    53.9460  54.1355

          k =-0.1000 0.1000-0.3000 (  4773 PWs)   bands (ev):

    30.2922  33.2204  35.6629  35.6709  37.5630  37.5696  38.0377  38.0455
    38.7214  39.8151  39.8218  40.0116  40.6110  41.4473  41.4516  41.6521
    41.6677  41.7663  42.7420  42.7465  43.1161  43.3957  43.4149  43.5615
    43.5646  43.8751  43.8781  44.2331  44.2353  44.4871  44.4921  44.9379
    46.4881  47.9384  47.9604  49.4689  51.1130  52.1949  52.1992  52.3183
    52.3203  52.3565  52.3784  52.5261  52.5286  52.5773  52.5787  52.7698
    52.8518  52.8533  53.6349  53.6396  53.7493  53.7516  53.8333  53.9450
    53.9464  54.1350

          k = 0.1000-0.1000-0.3000 (  4773 PWs)   bands (ev):

    30.2922  33.2204  35.6630  35.6709  37.5627  37.5695  38.0378  38.0456
    38.7216  39.8153  39.8220  40.0112  40.6110  41.4473  41.4516  41.6507
    41.6680  41.7673  42.7423  42.7467  43.1154  43.3959  43.4147  43.5613
    43.5646  43.8756  43.8783  44.2331  44.2355  44.4871  44.4920  44.9378
    46.4882  47.9384  47.9604  49.4687  51.1129  52.1952  52.1991  52.3209
    52.3215  52.3541  52.3771  52.5259  52.5283  52.5774  52.5789  52.7710
    52.8515  52.8522  53.6350  53.6390  53.7488  53.7512  53.8353  53.9444
    53.9460  54.1364

          k = 0.3000-0.1000 0.1000 (  4773 PWs)   bands (ev):

    30.2922  33.2204  35.6625  35.6713  37.5626  37.5701  38.0373  38.0457
    38.7215  39.8150  39.8223  40.0112  40.6112  41.4485  41.4503  41.6569
    41.6636  41.7655  42.7417  42.7468  43.1162  43.4009  43.4093  43.5624
    43.5637  43.8752  43.8783  44.2330  44.2355  44.4868  44.4924  44.9379
    46.4882  47.9445  47.9542  49.4688  51.1128  52.1965  52.1979  52.3171
    52.3192  52.3645  52.3725  52.5270  52.5279  52.5772  52.5791  52.7703
    52.8511  52.8529  53.6350  53.6392  53.7499  53.7510  53.8339  53.9441
    53.9469  54.1349

          k =-0.3000-0.1000-0.1000 (  4773 PWs)   bands (ev):

    30.2922  33.2204  35.6606  35.6733  37.5611  37.5716  38.0352  38.0478
    38.7214  39.8132  39.8239  40.0117  40.6111  41.4476  41.4512  41.6534
    41.6671  41.7656  42.7405  42.7477  43.1165  43.3968  43.4131  43.5620
    43.5644  43.8744  43.8791  44.2323  44.2360  44.4856  44.4937  44.9379
    46.4881  47.9399  47.9589  49.4688  51.1130  52.1946  52.1988  52.3167
    52.3218  52.3594  52.3769  52.5261  52.5281  52.5765  52.5796  52.7711
    52.8514  52.8524  53.6335  53.6413  53.7486  53.7511  53.8351  53.9439
    53.9460  54.1366

          k = 0.3000 0.1000-0.1000 (  4773 PWs)   bands (ev):

    30.2922  33.2204  35.6625  35.6713  37.5627  37.5700  38.0372  38.0457
    38.7216  39.8150  39.8225  40.0111  40.6111  41.4485  41.4503  41.6567
    41.6636  41.7655  42.7417  42.7471  43.1161  43.4006  43.4095  43.5625
    43.5637  43.8754  43.8783  44.2329  44.2355  44.4869  44.4924  44.9380
    46.4881  47.9445  47.9542  49.4689  51.1130  52.1962  52.1981  52.3176
    52.3215  52.3632  52.3711  52.5266  52.5278  52.5774  52.5790  52.7713
    52.8508  52.8521  53.6347  53.6398  53.7492  53.7507  53.8353  53.9443
    53.9459  54.1350

          k =-0.3000 0.1000 0.1000 (  4773 PWs)   bands (ev):

    30.2922  33.2204  35.6606  35.6733  37.5610  37.5716  38.0353  38.0477
    38.7217  39.8130  39.8239  40.0117  40.6111  41.4475  41.4512  41.6530
    41.6672  41.7659  42.7407  42.7479  43.1163  43.3964  43.4132  43.5617
    43.5645  43.8745  43.8793  44.2324  44.2360  44.4856  44.4937  44.9379
    46.4882  47.9399  47.9589  49.4687  51.1128  52.1952  52.1982  52.3185
    52.3238  52.3574  52.3750  52.5260  52.5280  52.5765  52.5795  52.7713
    52.8515  52.8525  53.6335  53.6411  53.7495  53.7516  53.8339  53.9439
    53.9463  54.1344

          k =-0.1000 0.3000 0.1000 (  4773 PWs)   bands (ev):

    30.2922  33.2204  35.6603  35.6736  37.5605  37.5719  38.0352  38.0481
    38.7216  39.8129  39.8240  40.0117  40.6110  41.4493  41.4496  41.6579
    41.6610  41.7671  42.7406  42.7481  43.1157  43.4046  43.4055  43.5631
    43.5632  43.8745  43.8794  44.2323  44.2361  44.4853  44.4939  44.9378
    46.4883  47.9488  47.9501  49.4687  51.1128  52.1969  52.1971  52.3189
    52.3240  52.3648  52.3673  52.5261  52.5266  52.5770  52.5798  52.7712
    52.8508  52.8526  53.6331  53.6408  53.7485  53.7507  53.8359  53.9440
    53.9468  54.1350

          k =-0.1000-0.3000-0.1000 (  4773 PWs)   bands (ev):

    30.2922  33.2204  35.6593  35.6746  37.5597  37.5727  38.0343  38.0490
    38.7215  39.8121  39.8252  40.0112  40.6110  41.4485  41.4504  41.6564
    41.6624  41.7671  42.7400  42.7489  43.1157  43.4005  43.4099  43.5622
    43.5638  43.8742  43.8795  44.2318  44.2366  44.4846  44.4946  44.9378
    46.4883  47.9442  47.9545  49.4688  51.1131  52.1964  52.1982  52.3173
    52.3237  52.3595  52.3720  52.5269  52.5279  52.5762  52.5794  52.7712
    52.8518  52.8527  53.6322  53.6409  53.7501  53.7510  53.8341  53.9438
    53.9477  54.1339

          k = 0.1000 0.3000-0.1000 (  4773 PWs)   bands (ev):

    30.2922  33.2204  35.6603  35.6736  37.5608  37.5719  38.0350  38.0481
    38.7214  39.8132  39.8243  40.0110  40.6111  41.4492  41.4496  41.6592
    41.6605  41.7664  42.7406  42.7482  43.1159  43.4046  43.4058  43.5631
    43.5633  43.8742  43.8792  44.2321  44.2361  44.4854  44.4939  44.9379
    46.4882  47.9487  47.9501  49.4688  51.1129  52.1967  52.1973  52.3183
    52.3217  52.3658  52.3695  52.5265  52.5267  52.5768  52.5793  52.7713
    52.8511  52.8522  53.6330  53.6410  53.7492  53.7505  53.8348  53.9445
    53.9471  54.1349

          k = 0.1000-0.3000 0.1000 (  4773 PWs)   bands (ev):

    30.2922  33.2204  35.6592  35.6746  37.5599  37.5727  38.0341  38.0491
    38.7215  39.8120  39.8250  40.0116  40.6110  41.4485  41.4505  41.6557
    41.6636  41.7666  42.7399  42.7487  43.1161  43.4007  43.4098  43.5623
    43.5637  43.8739  43.8795  44.2319  44.2365  44.4846  44.4946  44.9379
    46.4883  47.9442  47.9545  49.4689  51.1131  52.1964  52.1983  52.3141
    52.3232  52.3611  52.3746  52.5265  52.5277  52.5767  52.5797  52.7709
    52.8510  52.8527  53.6324  53.6416  53.7501  53.7511  53.8339  53.9437
    53.9470  54.1341

          k =-0.1000 0.1000 0.5000 (  4804 PWs)   bands (ev):

    31.5341  31.5444  36.6614  36.6713  36.6729  36.6809  38.5216  38.5298
    38.5314  38.5383  39.9308  39.9428  40.7327  40.7402  42.3807  42.3863
    42.3973  42.4045  42.4592  42.4623  42.4641  42.4670  43.7776  43.7791
    43.7883  43.7902  43.8840  43.8890  44.4833  44.4853  44.4921  44.4945
    48.6359  48.6540  49.9867  50.0009  50.0109  50.0264  51.5076  51.5231
    52.2538  52.2568  52.2671  52.2705  52.3194  52.3222  52.3236  52.3275
    52.8394  52.8456  52.8557  52.8597  54.0168  54.0427  54.0750  54.0754
    54.0779  54.0790

          k =-0.5000-0.1000 0.1000 (  4804 PWs)   bands (ev):

    31.5335  31.5450  36.6620  36.6685  36.6725  36.6836  38.5221  38.5275
    38.5312  38.5404  39.9303  39.9435  40.7323  40.7406  42.3796  42.3944
    42.3969  42.3977  42.4602  42.4622  42.4625  42.4675  43.7774  43.7785
    43.7891  43.7909  43.8834  43.8889  44.4826  44.4851  44.4934  44.4944
    48.6349  48.6550  49.9837  50.0073  50.0125  50.0211  51.5068  51.5238
    52.2526  52.2561  52.2690  52.2716  52.3187  52.3220  52.3253  52.3262
    52.8387  52.8435  52.8552  52.8627  54.0159  54.0452  54.0748  54.0758
    54.0771  54.0781

          k = 0.5000-0.1000-0.1000 (  4804 PWs)   bands (ev):

    31.5335  31.5450  36.6610  36.6689  36.6719  36.6849  38.5212  38.5274
    38.5304  38.5421  39.9303  39.9435  40.7324  40.7407  42.3816  42.3875
    42.3958  42.4029  42.4598  42.4624  42.4643  42.4667  43.7758  43.7789
    43.7872  43.7935  43.8840  43.8888  44.4817  44.4859  44.4929  44.4949
    48.6348  48.6549  49.9872  50.0014  50.0102  50.0262  51.5067  51.5236
    52.2481  52.2582  52.2658  52.2767  52.3189  52.3220  52.3245  52.3274
    52.8274  52.8488  52.8538  52.8705  54.0159  54.0453  54.0751  54.0752
    54.0775  54.0778

          k =-0.1000-0.5000 0.1000 (  4804 PWs)   bands (ev):

    31.5377  31.5408  36.6604  36.6680  36.6779  36.6803  38.5202  38.5275
    38.5355  38.5381  39.9349  39.9387  40.7354  40.7376  42.3902  42.3912
    42.3930  42.3940  42.4624  42.4626  42.4636  42.4640  43.7782  43.7837
    43.7851  43.7883  43.8854  43.8874  44.4853  44.4871  44.4893  44.4936
    48.6421  48.6477  50.0022  50.0038  50.0089  50.0103  51.5129  51.5176
    52.2530  52.2609  52.2637  52.2706  52.3218  52.3227  52.3238  52.3244
    52.8345  52.8467  52.8518  52.8672  54.0260  54.0343  54.0760  54.0762
    54.0771  54.0776

          k =-0.1000 0.5000-0.1000 (  4804 PWs)   bands (ev):

    31.5377  31.5408  36.6613  36.6661  36.6784  36.6808  38.5217  38.5255
    38.5361  38.5380  39.9349  39.9387  40.7354  40.7375  42.3836  42.3927
    42.3937  42.3991  42.4612  42.4624  42.4629  42.4658  43.7799  43.7835
    43.7849  43.7871  43.8851  43.8875  44.4860  44.4880  44.4893  44.4921
    48.6422  48.6478  49.9932  50.0083  50.0090  50.0143  51.5130  51.5178
    52.2583  52.2614  52.2630  52.2663  52.3204  52.3234  52.3236  52.3243
    52.8425  52.8483  52.8530  52.8568  54.0260  54.0345  54.0752  54.0763
    54.0771  54.0780

          k =-0.1000-0.3000 0.3000 (  4792 PWs)   bands (ev):

    30.9349  33.7813  33.7906  36.1711  36.3268  38.0560  38.4458  38.4545
    39.2433  39.2475  40.2202  40.2262  40.3611  41.1850  41.1900  41.4366
    41.4435  42.0218  42.0749  43.1767  43.1810  43.3372  43.3433  43.9727
    43.9753  44.3079  44.3107  44.5341  44.5456  44.5475  45.0578  45.0657
    46.8564  46.8646  49.6499  50.2241  50.2276  51.1695  51.1715  51.2120
    51.2201  51.2457  52.0552  52.0876  52.0935  52.1205  52.6813  52.6824
    52.7430  52.7490  53.7612  53.7679  53.9901  53.9905  54.2513  54.3134
    54.3239  54.5335

          k =-0.1000 0.3000-0.3000 (  4792 PWs)   bands (ev):

    30.9349  33.7813  33.7906  36.1711  36.3268  38.0562  38.4457  38.4544
    39.2433  39.2474  40.2202  40.2267  40.3605  41.1849  41.1899  41.4365
    41.4436  42.0217  42.0750  43.1768  43.1810  43.3372  43.3433  43.9727
    43.9754  44.3079  44.3106  44.5334  44.5458  44.5481  45.0578  45.0657
    46.8564  46.8646  49.6498  50.2244  50.2276  51.1700  51.1713  51.2119
    51.2203  51.2451  52.0551  52.0878  52.0935  52.1204  52.6813  52.6823
    52.7431  52.7488  53.7616  53.7682  53.9902  53.9905  54.2513  54.3130
    54.3234  54.5337

          k = 0.1000-0.3000-0.3000 (  4792 PWs)   bands (ev):

    30.9349  33.7793  33.7926  36.1710  36.3269  38.0559  38.4442  38.4562
    39.2425  39.2483  40.2180  40.2285  40.3610  41.1824  41.1923  41.4332
    41.4469  42.0218  42.0748  43.1757  43.1817  43.3360  43.3448  43.9721
    43.9759  44.3076  44.3111  44.5348  44.5446  44.5480  45.0541  45.0694
    46.8525  46.8686  49.6496  50.2234  50.2285  51.1700  51.1743  51.2039
    51.2167  51.2541  52.0560  52.0865  52.0937  52.1202  52.6812  52.6825
    52.7405  52.7516  53.7601  53.7695  53.9901  53.9905  54.2514  54.3078
    54.3291  54.5331

          k = 0.3000 0.1000-0.3000 (  4792 PWs)   bands (ev):

    30.9349  33.7790  33.7930  36.1710  36.3268  38.0564  38.4436  38.4562
    39.2422  39.2485  40.2187  40.2293  40.3598  41.1871  41.1878  41.4392
    41.4407  42.0217  42.0752  43.1758  43.1819  43.3357  43.3450  43.9719
    43.9761  44.3075  44.3114  44.5337  44.5462  44.5473  45.0611  45.0622
    46.8600  46.8611  49.6494  50.2236  50.2285  51.1708  51.1726  51.2070
    51.2192  51.2493  52.0544  52.0874  52.0942  52.1210  52.6813  52.6825
    52.7455  52.7461  53.7596  53.7699  53.9904  53.9907  54.2514  54.3174
    54.3188  54.5330

          k =-0.3000-0.1000-0.3000 (  4792 PWs)   bands (ev):

    30.9349  33.7779  33.7941  36.1710  36.3269  38.0562  38.4425  38.4574
    39.2419  39.2489  40.2179  40.2294  40.3604  41.1848  41.1902  41.4362
    41.4437  42.0217  42.0752  43.1751  43.1824  43.3348  43.3457  43.9717
    43.9764  44.3072  44.3116  44.5345  44.5455  44.5473  45.0575  45.0659
    46.8562  46.8648  49.6499  50.2227  50.2289  51.1703  51.1713  51.2144
    51.2194  51.2434  52.0553  52.0859  52.0952  52.1210  52.6811  52.6823
    52.7432  52.7488  53.7588  53.7706  53.9899  53.9904  54.2514  54.3126
    54.3242  54.5329

          k = 0.3000-0.1000 0.3000 (  4792 PWs)   bands (ev):

    30.9349  33.7779  33.7941  36.1709  36.3269  38.0564  38.4425  38.4573
    39.2417  39.2490  40.2181  40.2297  40.3599  41.1847  41.1901  41.4365
    41.4434  42.0218  42.0753  43.1752  43.1825  43.3348  43.3456  43.9716
    43.9763  44.3073  44.3115  44.5343  44.5456  44.5474  45.0576  45.0658
    46.8561  46.8648  49.6499  50.2227  50.2290  51.1710  51.1720  51.2138
    51.2186  51.2433  52.0542  52.0866  52.0952  52.1212  52.6811  52.6821
    52.7432  52.7490  53.7587  53.7705  53.9903  53.9905  54.2514  54.3124
    54.3243  54.5326

          k =-0.3000 0.1000 0.3000 (  4792 PWs)   bands (ev):

    30.9349  33.7790  33.7930  36.1711  36.3268  38.0561  38.4438  38.4562
    39.2425  39.2485  40.2179  40.2293  40.3602  41.1871  41.1878  41.4396
    41.4405  42.0218  42.0751  43.1757  43.1819  43.3357  43.3450  43.9719
    43.9761  44.3074  44.3113  44.5344  44.5462  44.5466  45.0613  45.0623
    46.8599  46.8611  49.6497  50.2234  50.2285  51.1713  51.1724  51.2051
    51.2191  51.2508  52.0533  52.0879  52.0945  52.1212  52.6812  52.6826
    52.7455  52.7463  53.7596  53.7700  53.9903  53.9906  54.2513  54.3173
    54.3193  54.5332

          k = 0.3000-0.3000 0.1000 (  4792 PWs)   bands (ev):

    30.9349  33.7818  33.7901  36.1711  36.3268  38.0565  38.4461  38.4536
    39.2435  39.2472  40.2211  40.2273  40.3592  41.1817  41.1932  41.4319
    41.4480  42.0217  42.0752  43.1771  43.1806  43.3376  43.3430  43.9728
    43.9752  44.3083  44.3105  44.5336  44.5448  44.5488  45.0527  45.0706
    46.8513  46.8698  49.6494  50.2247  50.2275  51.1690  51.1732  51.2083
    51.2191  51.2489  52.0558  52.0888  52.0926  52.1201  52.6812  52.6824
    52.7396  52.7523  53.7618  53.7675  53.9902  53.9904  54.2514  54.3057
    54.3307  54.5336

          k =-0.3000-0.3000-0.1000 (  4792 PWs)   bands (ev):

    30.9349  33.7837  33.7883  36.1712  36.3267  38.0563  38.4480  38.4519
    39.2444  39.2463  40.2218  40.2258  40.3598  41.1845  41.1904  41.4359
    41.4440  42.0217  42.0752  43.1778  43.1799  43.3388  43.3418  43.9734
    43.9746  44.3087  44.3100  44.5343  44.5454  44.5475  45.0573  45.0663
    46.8558  46.8651  49.6498  50.2251  50.2269  51.1703  51.1719  51.2091
    51.2187  51.2485  52.0565  52.0886  52.0916  52.1202  52.6816  52.6819
    52.7427  52.7493  53.7630  53.7665  53.9897  53.9906  54.2515  54.3122
    54.3242  54.5344

          k = 0.3000 0.3000-0.1000 (  4792 PWs)   bands (ev):

    30.9349  33.7837  33.7883  36.1710  36.3269  38.0565  38.4478  38.4520
    39.2443  39.2464  40.2223  40.2258  40.3594  41.1845  41.1904  41.4361
    41.4439  42.0217  42.0752  43.1779  43.1799  43.3388  43.3418  43.9733
    43.9746  44.3087  44.3100  44.5336  44.5458  44.5479  45.0572  45.0661
    46.8558  46.8652  49.6497  50.2252  50.2268  51.1713  51.1727  51.2100
    51.2172  51.2478  52.0552  52.0886  52.0923  52.1204  52.6817  52.6819
    52.7427  52.7493  53.7632  53.7661  53.9901  53.9904  54.2516  54.3123
    54.3244  54.5342

          k =-0.3000 0.3000 0.1000 (  4792 PWs)   bands (ev):

    30.9349  33.7818  33.7901  36.1711  36.3268  38.0562  38.4463  38.4536
    39.2438  39.2472  40.2200  40.2274  40.3599  41.1818  41.1932  41.4323
    41.4479  42.0217  42.0749  43.1770  43.1806  43.3377  43.3430  43.9727
    43.9751  44.3082  44.3104  44.5342  44.5447  44.5485  45.0529  45.0707
    46.8512  46.8699  49.6497  50.2246  50.2272  51.1697  51.1734  51.2050
    51.2196  51.2510  52.0545  52.0884  52.0938  52.1202  52.6812  52.6824
    52.7397  52.7524  53.7619  53.7679  53.9901  53.9903  54.2516  54.3058
    54.3307  54.5339

          k =-0.1000 0.3000 0.5000 (  4754 PWs)   bands (ev):

    32.1406  32.1510  34.8531  34.8632  37.1246  37.1340  38.9733  38.9811
    39.2339  39.2427  40.2018  40.2079  40.4804  40.4925  40.9928  41.0001
    42.1928  42.1936  42.6599  42.6718  42.9858  42.9893  43.9861  43.9899
    44.2173  44.2276  44.4789  44.4849  44.7810  44.7879  45.0495  45.0499
    47.9006  47.9176  48.8921  48.9094  50.1999  50.2120  50.7090  50.7214
    51.5929  51.6079  51.7650  51.7782  52.0404  52.0475  52.7125  52.7172
    53.2490  53.2625  53.2743  53.2897  53.8494  53.8738  54.1251  54.1262
    54.3174  54.3248

          k = 0.3000 0.1000 0.5000 (  4754 PWs)   bands (ev):

    32.1406  32.1509  34.8531  34.8632  37.1246  37.1339  38.9735  38.9817
    39.2337  39.2420  40.2018  40.2080  40.4805  40.4925  40.9929  41.0003
    42.1928  42.1937  42.6599  42.6718  42.9858  42.9892  43.9860  43.9897
    44.2173  44.2275  44.4789  44.4849  44.7811  44.7879  45.0495  45.0500
    47.9006  47.9176  48.8920  48.9095  50.2000  50.2120  50.7090  50.7214
    51.5926  51.6076  51.7652  51.7786  52.0405  52.0476  52.7123  52.7172
    53.2447  53.2619  53.2787  53.2901  53.8495  53.8739  54.1251  54.1262
    54.3174  54.3249

          k = 0.3000-0.1000-0.5000 (  4754 PWs)   bands (ev):

    32.1406  32.1509  34.8531  34.8632  37.1246  37.1339  38.9735  38.9814
    39.2337  39.2424  40.2018  40.2078  40.4804  40.4925  40.9929  41.0004
    42.1928  42.1937  42.6598  42.6718  42.9858  42.9892  43.9861  43.9898
    44.2173  44.2275  44.4789  44.4849  44.7810  44.7880  45.0495  45.0500
    47.9006  47.9176  48.8920  48.9094  50.2000  50.2121  50.7091  50.7214
    51.5933  51.6079  51.7646  51.7783  52.0403  52.0476  52.7126  52.7172
    53.2435  53.2627  53.2766  53.2925  53.8493  53.8738  54.1253  54.1264
    54.3173  54.3248

          k =-0.5000-0.3000 0.1000 (  4754 PWs)   bands (ev):

    32.1400  32.1516  34.8525  34.8638  37.1240  37.1346  38.9730  38.9823
    39.2330  39.2427  40.2011  40.2080  40.4801  40.4934  40.9926  41.0006
    42.1928  42.1935  42.6594  42.6725  42.9857  42.9893  43.9855  43.9900
    44.2170  44.2282  44.4786  44.4851  44.7806  44.7882  45.0494  45.0500
    47.8997  47.9186  48.8911  48.9104  50.1991  50.2127  50.7083  50.7222
    51.5926  51.6088  51.7642  51.7787  52.0398  52.0478  52.7121  52.7174
    53.2497  53.2637  53.2725  53.2899  53.8483  53.8754  54.1250  54.1262
    54.3168  54.3250

          k = 0.5000-0.3000-0.1000 (  4754 PWs)   bands (ev):

    32.1400  32.1516  34.8525  34.8638  37.1241  37.1347  38.9724  38.9821
    39.2337  39.2426  40.2013  40.2083  40.4801  40.4933  40.9924  41.0004
    42.1927  42.1935  42.6595  42.6725  42.9857  42.9892  43.9855  43.9900
    44.2170  44.2283  44.4786  44.4852  44.7806  44.7882  45.0495  45.0499
    47.8997  47.9186  48.8911  48.9104  50.1992  50.2128  50.7081  50.7221
    51.5925  51.6084  51.7643  51.7794  52.0396  52.0480  52.7122  52.7178
    53.2453  53.2634  53.2750  53.2913  53.8482  53.8753  54.1250  54.1262
    54.3169  54.3249

          k =-0.1000-0.5000 0.3000 (  4754 PWs)   bands (ev):

    32.1442  32.1473  34.8566  34.8596  37.1279  37.1307  38.9756  38.9787
    39.2374  39.2395  40.2038  40.2057  40.4848  40.4886  40.9954  40.9974
    42.1929  42.1933  42.6640  42.6678  42.9870  42.9881  43.9872  43.9883
    44.2209  44.2243  44.4809  44.4828  44.7833  44.7856  45.0497  45.0498
    47.9065  47.9117  48.8981  48.9035  50.2041  50.2077  50.7133  50.7172
    51.5983  51.6030  51.7695  51.7734  52.0428  52.0450  52.7141  52.7157
    53.2520  53.2608  53.2739  53.2879  53.8581  53.8659  54.1255  54.1260
    54.3200  54.3221

          k =-0.1000 0.5000-0.3000 (  4754 PWs)   bands (ev):

    32.1442  32.1473  34.8566  34.8596  37.1278  37.1307  38.9764  38.9787
    39.2367  39.2393  40.2039  40.2056  40.4847  40.4885  40.9954  40.9976
    42.1930  42.1933  42.6640  42.6679  42.9869  42.9881  43.9872  43.9884
    44.2210  44.2242  44.4809  44.4829  44.7832  44.7856  45.0496  45.0498
    47.9065  47.9117  48.8981  48.9034  50.2041  50.2078  50.7133  50.7170
    51.5976  51.6030  51.7702  51.7732  52.0429  52.0450  52.7140  52.7156
    53.2538  53.2621  53.2728  53.2871  53.8581  53.8658  54.1255  54.1259
    54.3199  54.3221

          k = 0.3000-0.5000 0.1000 (  4754 PWs)   bands (ev):

    32.1443  32.1473  34.8566  34.8597  37.1280  37.1307  38.9762  38.9788
    39.2369  39.2392  40.2038  40.2057  40.4846  40.4884  40.9955  40.9976
    42.1931  42.1934  42.6640  42.6678  42.9869  42.9880  43.9874  43.9885
    44.2207  44.2240  44.4809  44.4828  44.7834  44.7856  45.0496  45.0497
    47.9066  47.9117  48.8980  48.9034  50.2042  50.2077  50.7133  50.7171
    51.5982  51.6031  51.7695  51.7735  52.0427  52.0448  52.7141  52.7156
    53.2519  53.2613  53.2758  53.2866  53.8579  53.8658  54.1255  54.1259
    54.3199  54.3220

          k = 0.3000 0.5000-0.1000 (  4754 PWs)   bands (ev):

    32.1443  32.1473  34.8566  34.8597  37.1280  37.1307  38.9763  38.9787
    39.2365  39.2393  40.2042  40.2058  40.4846  40.4884  40.9953  40.9974
    42.1931  42.1934  42.6640  42.6678  42.9869  42.9880  43.9874  43.9884
    44.2207  44.2241  44.4808  44.4830  44.7833  44.7856  45.0497  45.0497
    47.9065  47.9116  48.8983  48.9035  50.2041  50.2078  50.7133  50.7170
    51.5977  51.6033  51.7700  51.7732  52.0428  52.0450  52.7140  52.7156
    53.2489  53.2573  53.2793  53.2894  53.8579  53.8659  54.1255  54.1260
    54.3200  54.3222

          k =-0.5000 0.1000 0.3000 (  4754 PWs)   bands (ev):

    32.1400  32.1516  34.8525  34.8638  37.1240  37.1345  38.9723  38.9816
    39.2336  39.2434  40.2016  40.2082  40.4800  40.4932  40.9923  41.0005
    42.1928  42.1935  42.6595  42.6724  42.9857  42.9893  43.9857  43.9900
    44.2168  44.2283  44.4786  44.4852  44.7807  44.7883  45.0494  45.0500
    47.8996  47.9185  48.8911  48.9103  50.1993  50.2128  50.7083  50.7221
    51.5922  51.6086  51.7642  51.7789  52.0399  52.0486  52.7123  52.7176
    53.2424  53.2606  53.2760  53.2960  53.8481  53.8752  54.1251  54.1261
    54.3169  54.3251

          k = 0.5000-0.1000 0.3000 (  4754 PWs)   bands (ev):

    32.1400  32.1516  34.8525  34.8638  37.1240  37.1345  38.9726  38.9822
    39.2335  39.2428  40.2012  40.2081  40.4800  40.4933  40.9925  41.0006
    42.1928  42.1935  42.6595  42.6725  42.9856  42.9893  43.9858  43.9900
    44.2168  44.2282  44.4786  44.4851  44.7807  44.7882  45.0494  45.0500
    47.8996  47.9185  48.8911  48.9103  50.1993  50.2127  50.7084  50.7221
    51.5924  51.6088  51.7641  51.7788  52.0398  52.0480  52.7123  52.7174
    53.2448  53.2630  53.2754  53.2925  53.8482  53.8754  54.1252  54.1263
    54.3168  54.3252

          k =-0.5000 0.1000 0.5000 (  4740 PWs)   bands (ev):

    33.2791  33.2881  33.2971  33.3085  37.9945  38.0023  38.0103  38.0203
    39.8155  39.8224  39.8290  39.8381  41.4522  41.4600  41.4611  41.4667
    41.4694  41.4768  41.4793  41.4874  43.8112  43.8154  43.8169  43.8208
    44.8967  44.8995  44.9017  44.9043  44.9067  44.9107  44.9134  44.9155
    48.7926  48.8079  48.8180  48.8210  48.8230  48.8365  48.8432  48.8451
    51.7309  51.7425  51.7479  51.7577  53.3626  53.3748  53.3812  53.3906
    53.5686  53.5720  53.5809  53.5832  53.5924  53.5975  53.6060  53.6189
    54.1896  54.1930

          k =-0.5000 0.5000 0.1000 (  4740 PWs)   bands (ev):

    33.2861  33.2871  33.2971  33.3024  38.0005  38.0016  38.0105  38.0152
    39.8207  39.8216  39.8291  39.8332  41.4514  41.4536  41.4603  41.4686
    41.4709  41.4807  41.4824  41.4853  43.8129  43.8146  43.8179  43.8187
    44.8963  44.8974  44.9025  44.9063  44.9068  44.9115  44.9119  44.9155
    48.8055  48.8100  48.8169  48.8201  48.8225  48.8292  48.8387  48.8444
    51.7361  51.7407  51.7501  51.7520  53.3680  53.3737  53.3828  53.3858
    53.5629  53.5734  53.5828  53.5833  53.5912  53.6025  53.6041  53.6180
    54.1911  54.1921

          k =-0.3000-0.3000 0.3000 (  4788 PWs)   bands (ev):

    31.5552  34.3159  34.3257  34.3332  36.7620  36.7714  36.7786  38.8474
    39.7441  39.7486  39.7520  41.7447  41.7483  41.7524  41.8648  41.8740
    41.8778  41.8789  41.8927  41.9011  43.7912  43.7979  43.7996  43.8024
    43.8048  43.8097  43.8125  43.8190  43.8241  44.8385  44.8393  44.8403
    48.4445  48.4517  48.4591  49.7968  49.8020  49.8062  51.4777  51.4807
    51.4832  51.4880  51.4891  51.4935  52.3559  52.3616  52.3702  52.3762
    52.3793  52.3884  52.4246  52.4292  52.4340  53.1026  54.7231  54.7275
    54.7330  55.3103

          k =-0.3000 0.3000-0.3000 (  4788 PWs)   bands (ev):

    31.5552  34.3147  34.3249  34.3351  36.7609  36.7707  36.7805  38.8475
    39.7436  39.7482  39.7528  41.7417  41.7483  41.7554  41.8625  41.8720
    41.8808  41.8850  41.8917  41.8974  43.7935  43.7956  43.7988  43.8011
    43.8030  43.8055  43.8135  43.8216  43.8288  44.8383  44.8393  44.8405
    48.4390  48.4516  48.4645  49.7961  49.8018  49.8073  51.4752  51.4816
    51.4840  51.4880  51.4906  51.4921  52.3533  52.3646  52.3687  52.3761
    52.3801  52.3897  52.4228  52.4293  52.4357  53.1026  54.7221  54.7277
    54.7333  55.3080

          k = 0.3000-0.3000-0.3000 (  4788 PWs)   bands (ev):

    31.5552  34.3134  34.3275  34.3339  36.7595  36.7732  36.7793  38.8473
    39.7431  39.7494  39.7523  41.7407  41.7482  41.7563  41.8642  41.8727
    41.8800  41.8847  41.8905  41.8975  43.7887  43.7942  43.7978  43.8016
    43.8042  43.8087  43.8130  43.8221  43.8306  44.8385  44.8391  44.8407
    48.4377  48.4517  48.4661  49.7954  49.8030  49.8064  51.4750  51.4796
    51.4820  51.4879  51.4918  51.4961  52.3542  52.3613  52.3695  52.3710
    52.3824  52.3895  52.4223  52.4287  52.4399  53.1036  54.7223  54.7266
    54.7337  55.3079

          k =-0.3000 0.3000 0.5000 (  4758 PWs)   bands (ev):

    32.7227  32.7330  35.3410  35.3512  35.3532  35.3615  37.6239  37.6333
    40.6689  40.6738  40.6758  40.6798  41.0144  41.0266  42.6937  42.6979
    42.7090  42.7156  42.7182  42.7198  42.7282  42.7303  43.1416  43.1435
    43.1531  43.1553  44.4883  44.4922  44.4927  44.4977  44.9311  44.9392
    48.2779  48.2897  50.2945  50.3094  50.3157  50.3257  50.3357  50.3442
    50.3471  50.3634  51.5229  51.5286  51.5398  51.5435  51.9445  51.9514
    51.9557  51.9631  53.2593  53.2815  53.5676  53.5729  53.5779  53.5821
    55.2170  55.2287

          k =-0.5000-0.3000 0.3000 (  4758 PWs)   bands (ev):

    32.7221  32.7336  35.3415  35.3484  35.3527  35.3643  37.6233  37.6339
    40.6691  40.6722  40.6755  40.6808  41.0142  41.0275  42.6919  42.7057
    42.7076  42.7107  42.7179  42.7216  42.7255  42.7313  43.1413  43.1429
    43.1534  43.1565  44.4867  44.4917  44.4945  44.4978  44.9308  44.9395
    48.2772  48.2904  50.2928  50.3117  50.3181  50.3237  50.3352  50.3410
    50.3520  50.3611  51.5215  51.5267  51.5397  51.5467  51.9438  51.9554
    51.9569  51.9584  53.2582  53.2825  53.5667  53.5705  53.5794  53.5845
    55.2164  55.2290

          k = 0.5000-0.3000-0.3000 (  4758 PWs)   bands (ev):

    32.7221  32.7336  35.3404  35.3492  35.3519  35.3654  37.6233  37.6339
    40.6682  40.6719  40.6745  40.6834  41.0142  41.0274  42.6944  42.6992
    42.7080  42.7114  42.7195  42.7212  42.7286  42.7298  43.1403  43.1431
    43.1517  43.1589  44.4884  44.4907  44.4936  44.4982  44.9307  44.9395
    48.2773  48.2905  50.2955  50.3081  50.3172  50.3255  50.3327  50.3433
    50.3492  50.3641  51.5099  51.5322  51.5372  51.5554  51.9448  51.9526
    51.9544  51.9629  53.2581  53.2827  53.5624  53.5739  53.5772  53.5864
    55.2171  55.2290

          k =-0.3000-0.5000 0.3000 (  4758 PWs)   bands (ev):

    32.7263  32.7294  35.3403  35.3479  35.3582  35.3604  37.6272  37.6300
    40.6671  40.6732  40.6773  40.6805  41.0187  41.0226  42.7023  42.7032
    42.7055  42.7061  42.7226  42.7228  42.7245  42.7251  43.1424  43.1488
    43.1505  43.1521  44.4881  44.4906  44.4948  44.4973  44.9339  44.9364
    48.2820  48.2856  50.3071  50.3124  50.3145  50.3182  50.3360  50.3416
    50.3505  50.3555  51.5174  51.5302  51.5358  51.5512  51.9520  51.9526
    51.9546  51.9553  53.2669  53.2741  53.5677  53.5715  53.5780  53.5831
    55.2210  55.2243

          k =-0.3000 0.5000-0.3000 (  4758 PWs)   bands (ev):

    32.7263  32.7294  35.3410  35.3459  35.3587  35.3612  37.6272  37.6300
    40.6692  40.6717  40.6779  40.6792  41.0187  41.0225  42.6957  42.7047
    42.7059  42.7111  42.7181  42.7229  42.7243  42.7299  43.1444  43.1478
    43.1492  43.1523  44.4882  44.4897  44.4951  44.4978  44.9339  44.9365
    48.2821  48.2856  50.3013  50.3107  50.3145  50.3183  50.3418  50.3458
    50.3491  50.3537  51.5264  51.5324  51.5362  51.5399  51.9476  51.9543
    51.9551  51.9574  53.2670  53.2742  53.5712  53.5753  53.5761  53.5783
    55.2213  55.2244

          k =-0.5000 0.3000 0.5000 (  4772 PWs)   bands (ev):

    33.8194  33.8284  33.8373  33.8487  36.2862  36.2948  36.3033  36.3142
    41.5394  41.5442  41.5494  41.5559  41.9613  41.9695  41.9702  41.9759
    41.9787  41.9862  41.9889  41.9969  43.6132  43.6147  43.6149  43.6163
    43.9862  43.9936  43.9949  43.9999  44.0025  44.0091  44.0122  44.0187
    49.7247  49.7392  49.7488  49.7524  49.7537  49.7639  49.7739  49.7749
    51.0304  51.0410  51.0430  51.0530  51.8924  51.9052  51.9087  51.9197
    52.4032  52.4122  52.4168  52.4221  52.4270  52.4329  52.4417  52.4473
    56.0407  56.0478

          k =-0.5000 0.5000 0.3000 (  4772 PWs)   bands (ev):

    33.8263  33.8274  33.8374  33.8426  36.2928  36.2939  36.3034  36.3085
    41.5432  41.5437  41.5494  41.5525  41.9605  41.9626  41.9694  41.9779
    41.9804  41.9904  41.9917  41.9952  43.6137  43.6144  43.6153  43.6156
    43.9860  43.9866  43.9939  44.0018  44.0039  44.0130  44.0139  44.0179
    49.7317  49.7392  49.7467  49.7518  49.7540  49.7610  49.7691  49.7779
    51.0343  51.0380  51.0461  51.0490  51.8971  51.9020  51.9122  51.9149
    52.4022  52.4133  52.4164  52.4217  52.4266  52.4326  52.4402  52.4503
    56.0475  56.0480

     the Fermi energy is    52.7539 ev

!    total energy              =   -1130.03912425 Ry
     Harris-Foulkes estimate   =   -1130.03912706 Ry
     estimated scf accuracy    <       0.00000021 Ry

     total all-electron energy =    -15406.608146 Ry

     The total energy is the sum of the following terms:

     one-electron contribution =     469.16709565 Ry
     hartree contribution      =       1.75058448 Ry
     xc contribution           =    -138.28980641 Ry
     ewald contribution        =    -326.84024986 Ry
     one-center paw contrib.   =   -1135.82460023 Ry
     smearing contrib. (-TS)   =      -0.00214788 Ry

     convergence has been achieved in  17 iterations

     Forces acting on atoms (cartesian axes, Ry/au):

     atom    1 type  1   force =    -0.00329965   -0.00405102    0.00102417
     atom    2 type  1   force =    -0.00468222   -0.00178781    0.01296249
     atom    3 type  1   force =     0.01316020    0.00116399   -0.02053588
     atom    4 type  1   force =    -0.00676818    0.00296780   -0.02385176
     atom    5 type  1   force =    -0.01483496   -0.01278946    0.01638406
     atom    6 type  1   force =    -0.01072108    0.01104405   -0.00651951
     atom    7 type  1   force =    -0.01495817   -0.03191514    0.01258352
     atom    8 type  1   force =    -0.00605632    0.00965999   -0.00442564
     atom    9 type  1   force =     0.01976161    0.00536166   -0.00125926
     atom   10 type  1   force =    -0.00610344    0.00982734   -0.02724232
     atom   11 type  1   force =    -0.00977051   -0.01897727   -0.01254365
     atom   12 type  1   force =    -0.01571500   -0.00553534   -0.00999708
     atom   13 type  1   force =    -0.00446833   -0.01731266    0.00612498
     atom   14 type  1   force =    -0.01004259    0.02030328    0.01917210
     atom   15 type  1   force =    -0.01766298    0.01482797    0.01762448
     atom   16 type  1   force =     0.02441864    0.01174122    0.01451090
     atom   17 type  1   force =    -0.01754827   -0.00458698   -0.00117300
     atom   18 type  1   force =     0.01017127   -0.00344471    0.01475360
     atom   19 type  1   force =     0.02003194    0.01294141   -0.00410538
     atom   20 type  1   force =     0.00636914    0.02096679   -0.00955868
     atom   21 type  1   force =     0.00484832   -0.02223863    0.00971953
     atom   22 type  1   force =    -0.00227159    0.02352581    0.01247374
     atom   23 type  1   force =     0.01291637   -0.00934355   -0.01220264
     atom   24 type  1   force =     0.01429376    0.00474258    0.00407894
     atom   25 type  1   force =    -0.01162877   -0.00038717    0.00573736
     atom   26 type  1   force =     0.01126062   -0.00864802    0.00379175
     atom   27 type  1   force =    -0.00871230   -0.00782265    0.00325719
     atom   28 type  1   force =     0.00495184    0.00064732    0.00550104
     atom   29 type  1   force =     0.03862885   -0.01848704    0.00216291
     atom   30 type  1   force =    -0.00451719    0.00761261   -0.00099238
     atom   31 type  1   force =    -0.01080266   -0.00559710   -0.01701839
     atom   32 type  1   force =    -0.00024834    0.01559073   -0.01043721

     Total force =     0.127765     Total SCF correction =     0.000624


     Computing stress (Cartesian axis) and pressure

          total   stress  (Ry/bohr**3)                   (kbar)     P=59609.21
   0.40521397   0.00000006   0.00000086      59609.02      0.01      0.13
   0.00000006   0.40521608  -0.00000138          0.01  59609.33     -0.20
   0.00000086  -0.00000138   0.40521571          0.13     -0.20  59609.28


     Writing output data file fe_scf_fcc_2.save/
 
     init_run     :      2.56s CPU      2.75s WALL (       1 calls)
     electrons    :     90.58s CPU     94.06s WALL (       1 calls)
     forces       :      0.57s CPU      0.63s WALL (       1 calls)
     stress       :      0.96s CPU      0.98s WALL (       1 calls)

     Called by init_run:
     wfcinit      :      2.45s CPU      2.60s WALL (       1 calls)
     potinit      :      0.07s CPU      0.07s WALL (       1 calls)
     hinit0       :      0.02s CPU      0.06s WALL (       1 calls)

     Called by electrons:
     c_bands      :     82.53s CPU     85.43s WALL (      17 calls)
     sum_band     :      6.87s CPU      7.42s WALL (      17 calls)
     v_of_rho     :      0.04s CPU      0.05s WALL (      18 calls)
     newd         :      0.03s CPU      0.03s WALL (      18 calls)
     PAW_pot      :      1.13s CPU      1.15s WALL (      18 calls)
     mix_rho      :      0.02s CPU      0.02s WALL (      17 calls)

     Called by c_bands:
     init_us_2    :      0.75s CPU      0.78s WALL (    2331 calls)
     cegterg      :     79.91s CPU     82.73s WALL (    1071 calls)

     Called by sum_band:
     sum_band:bec :      0.11s CPU      0.12s WALL (    1071 calls)
     addusdens    :      0.02s CPU      0.02s WALL (      17 calls)

     Called by *egterg:
     h_psi        :     35.25s CPU     37.52s WALL (    5178 calls)
     s_psi        :      3.16s CPU      3.19s WALL (    5178 calls)
     g_psi        :      0.21s CPU      0.21s WALL (    4044 calls)
     cdiaghg      :     34.25s CPU     34.36s WALL (    5115 calls)

     Called by h_psi:
     h_psi:pot    :     35.07s CPU     37.34s WALL (    5178 calls)
     h_psi:calbec :      4.59s CPU      5.32s WALL (    5178 calls)
     vloc_psi     :     27.09s CPU     28.59s WALL (    5178 calls)
     add_vuspsi   :      3.36s CPU      3.40s WALL (    5178 calls)

     General routines
     calbec       :      6.40s CPU      7.47s WALL (    6564 calls)
     fft          :      0.05s CPU      0.09s WALL (     224 calls)
     ffts         :      0.00s CPU      0.01s WALL (      17 calls)
     fftw         :     29.97s CPU     31.60s WALL (  424400 calls)
 
     Parallel routines
     fft_scatt_xy :      2.21s CPU      2.34s WALL (  424641 calls)
     fft_scatt_yz :     18.49s CPU     19.59s WALL (  424641 calls)
 
     PWSCF        :  1m35.97s CPU     1m40.09s WALL

 
   This run was terminated on:   0: 1:25  23Oct2019            

=------------------------------------------------------------------------------=
   JOB DONE.
=------------------------------------------------------------------------------=
