
     Program PWSCF v.6.4.1 starts on 24Feb2020 at 15:59:37 

     This program is part of the open-source Quantum ESPRESSO suite
     for quantum simulation of materials; please cite
         "P. Giannozzi et al., J. Phys.:Condens. Matter 21 395502 (2009);
         "P. Giannozzi et al., J. Phys.:Condens. Matter 29 465901 (2017);
          URL http://www.quantum-espresso.org", 
     in publications or presentations arising from this work. More details at
     http://www.quantum-espresso.org/quote

     Parallel version (MPI), running on     4 processors

     MPI processes distributed on     1 nodes
     R & G space division:  proc/nbgrp/npool/nimage =       4
     Reading input from /cloud/Code/python/py_pwscf_converge/src/example2/wd/runpwscf/file_10218.in
Warning: card &IONS ignored
Warning: card ION_DYNAMICS = 'BFGS', ignored
Warning: card / ignored
Warning: card &CELL ignored
Warning: card CELL_DYNAMICS = 'BFGS', ignored
Warning: card CELL_FACTOR = 2.0, ignored
Warning: card PRESS = 0.0, ignored
Warning: card / ignored

     Current dimensions of program PWSCF are:
     Max number of different atomic species (ntypx) = 10
     Max number of k-points (npk) =  40000
     Max angular momentum in pseudopotentials (lmaxx) =  3
               file Al.pbe-nl-kjpaw_psl.1.0.0.UPF: wavefunction(s)  3S 3P renormalized

     Subspace diagonalization in iterative solution of the eigenvalue problem:
     a serial algorithm will be used


     Parallelization info
     --------------------
     sticks:   dense  smooth     PW     G-vecs:    dense   smooth      PW
     Min         115     115     70                 1873     1873     893
     Max         117     117     72                 1875     1875     894
     Sum         465     465    285                 7497     7497    3575



     bravais-lattice index     =            0
     lattice parameter (alat)  =       7.6356  a.u.
     unit-cell volume          =     445.1737 (a.u.)^3
     number of atoms/cell      =            4
     number of atomic types    =            1
     number of electrons       =        12.00
     number of Kohn-Sham states=           10
     kinetic-energy cutoff     =      50.0000  Ry
     charge density cutoff     =     100.0000  Ry
     convergence threshold     =      1.0E-06
     mixing beta               =       0.1000
     number of iterations used =           10  TF        mixing
     Exchange-correlation      = SLA PW PBX PBC ( 1  4  3  4 0 0)

     celldm(1)=   7.635600  celldm(2)=   0.000000  celldm(3)=   0.000000
     celldm(4)=   0.000000  celldm(5)=   0.000000  celldm(6)=   0.000000

     crystal axes: (cart. coord. in units of alat)
               a(1) = (   1.000000   0.000000   0.000000 )  
               a(2) = (   0.000000   1.000000   0.000000 )  
               a(3) = (   0.000000   0.000000   1.000000 )  

     reciprocal axes: (cart. coord. in units 2 pi/alat)
               b(1) = (  1.000000  0.000000  0.000000 )  
               b(2) = (  0.000000  1.000000  0.000000 )  
               b(3) = (  0.000000  0.000000  1.000000 )  


     PseudoPot. # 1 for Al read from file:
     /opt/pp/Al.pbe-nl-kjpaw_psl.1.0.0.UPF
     MD5 check sum: 1b67f78b73fe58c7924490f171ce8a1e
     Pseudo is Projector augmented-wave + core cor, Zval =  3.0
     Generated using "atomic" code by A. Dal Corso v.6.3
     Shape of augmentation charge: PSQ
     Using radial grid of 1135 points,  4 beta functions with: 
                l(1) =   0
                l(2) =   0
                l(3) =   1
                l(4) =   1
     Q(r) pseudized with 0 coefficients 


     atomic species   valence    mass     pseudopotential
        Al             3.00    26.98200     Al( 1.00)

     No symmetry found



   Cartesian axes

     site n.     atom                  positions (alat units)
         1           Al  tau(   1) = (  -0.0000654   0.0000190   0.0001361  )
         2           Al  tau(   2) = (   0.5001592   0.4996200   0.0001406  )
         3           Al  tau(   3) = (   0.4998143   0.0000610   0.5005910  )
         4           Al  tau(   4) = (  -0.0000400   0.5004374   0.5003674  )

     number of k points=    14  Marzari-Vanderbilt smearing, width (Ry)=  0.0400
                       cart. coord. in units 2pi/alat
        k(    1) = (   0.1666667   0.1666667   0.1666667), wk =   0.1481481
        k(    2) = (   0.1666667   0.1666667  -0.5000000), wk =   0.1481481
        k(    3) = (   0.1666667  -0.5000000  -0.5000000), wk =   0.1481481
        k(    4) = (  -0.5000000  -0.5000000  -0.5000000), wk =   0.0740741
        k(    5) = (  -0.1666667  -0.1666667   0.1666667), wk =   0.1481481
        k(    6) = (  -0.1666667   0.1666667  -0.1666667), wk =   0.1481481
        k(    7) = (   0.1666667  -0.1666667  -0.1666667), wk =   0.1481481
        k(    8) = (  -0.1666667   0.1666667   0.5000000), wk =   0.1481481
        k(    9) = (  -0.5000000  -0.1666667   0.1666667), wk =   0.1481481
        k(   10) = (   0.5000000  -0.1666667  -0.1666667), wk =   0.1481481
        k(   11) = (  -0.1666667  -0.5000000   0.1666667), wk =   0.1481481
        k(   12) = (  -0.1666667   0.5000000  -0.1666667), wk =   0.1481481
        k(   13) = (  -0.5000000   0.1666667   0.5000000), wk =   0.1481481
        k(   14) = (  -0.5000000   0.5000000   0.1666667), wk =   0.1481481

     Dense  grid:     7497 G-vectors     FFT dimensions: (  25,  25,  25)

     Estimated max dynamical RAM per process >       4.85 MB

     Estimated total dynamical RAM >      19.40 MB

     Initial potential from superposition of free atoms

     starting charge   11.99084, renormalised to   12.00000
     Starting wfcs are   16 randomized atomic wfcs
     Checking if some PAW data can be deallocated... 

     total cpu time spent up to now is        0.6 secs

     Self-consistent Calculation

     iteration #  1     ecut=    50.00 Ry     beta= 0.10
     Davidson diagonalization with overlap
     ethr =  1.00E-02,  avg # of iterations =  2.9

     Threshold (ethr) on eigenvalues was too large:
     Diagonalizing with lowered threshold

     Davidson diagonalization with overlap
     ethr =  1.89E-04,  avg # of iterations =  2.3

     total cpu time spent up to now is        1.1 secs

     total energy              =    -158.05430357 Ry
     Harris-Foulkes estimate   =    -158.05504442 Ry
     estimated scf accuracy    <       0.02182820 Ry

     iteration #  2     ecut=    50.00 Ry     beta= 0.10
     Davidson diagonalization with overlap
     ethr =  1.82E-04,  avg # of iterations =  1.0

     total cpu time spent up to now is        1.3 secs

     total energy              =    -158.04890254 Ry
     Harris-Foulkes estimate   =    -158.05446119 Ry
     estimated scf accuracy    <       0.01881257 Ry

     iteration #  3     ecut=    50.00 Ry     beta= 0.10
     Davidson diagonalization with overlap
     ethr =  1.57E-04,  avg # of iterations =  1.0

     total cpu time spent up to now is        1.5 secs

     total energy              =    -158.04915417 Ry
     Harris-Foulkes estimate   =    -158.04920828 Ry
     estimated scf accuracy    <       0.00010427 Ry

     iteration #  4     ecut=    50.00 Ry     beta= 0.10
     Davidson diagonalization with overlap
     ethr =  8.69E-07,  avg # of iterations =  4.6

     total cpu time spent up to now is        1.8 secs

     total energy              =    -158.04919799 Ry
     Harris-Foulkes estimate   =    -158.04921657 Ry
     estimated scf accuracy    <       0.00005447 Ry

     iteration #  5     ecut=    50.00 Ry     beta= 0.10
     Davidson diagonalization with overlap
     ethr =  4.54E-07,  avg # of iterations =  2.1

     total cpu time spent up to now is        2.0 secs

     total energy              =    -158.04916432 Ry
     Harris-Foulkes estimate   =    -158.04920040 Ry
     estimated scf accuracy    <       0.00004110 Ry

     iteration #  6     ecut=    50.00 Ry     beta= 0.10
     Davidson diagonalization with overlap
     ethr =  3.42E-07,  avg # of iterations =  2.0

     total cpu time spent up to now is        2.3 secs

     total energy              =    -158.04917200 Ry
     Harris-Foulkes estimate   =    -158.04917240 Ry
     estimated scf accuracy    <       0.00000107 Ry

     iteration #  7     ecut=    50.00 Ry     beta= 0.10
     Davidson diagonalization with overlap
     ethr =  8.95E-09,  avg # of iterations =  1.6

     total cpu time spent up to now is        2.5 secs

     End of self-consistent calculation

          k = 0.1667 0.1667 0.1667 (  2659 PWs)   bands (ev):

    -2.4776   3.3892   3.3918   3.3945   8.9373   8.9422   8.9469   9.4195
     9.4205   9.4214

          k = 0.1667 0.1667-0.5000 (  2672 PWs)   bands (ev):

    -0.4908  -0.4824   5.1704   5.1706   5.4435   5.4439  10.9098  10.9134
    10.9136  10.9194

          k = 0.1667-0.5000-0.5000 (  2636 PWs)   bands (ev):

     1.4726   1.4734   1.4814   1.4823   7.2036   7.2044   7.2129   7.2139
    13.0183  13.0236

          k =-0.5000-0.5000-0.5000 (  2608 PWs)   bands (ev):

     3.3120   3.3121   3.3123   3.3124   3.5316   3.5320   3.5321   3.5324
    19.3169  19.3171

          k =-0.1667-0.1667 0.1667 (  2659 PWs)   bands (ev):

    -2.4776   3.3898   3.3919   3.3939   8.9383   8.9422   8.9459   9.4197
     9.4205   9.4212

          k =-0.1667 0.1667-0.1667 (  2659 PWs)   bands (ev):

    -2.4776   3.3904   3.3918   3.3934   8.9394   8.9421   8.9449   9.4199
     9.4204   9.4210

          k = 0.1667-0.1667-0.1667 (  2659 PWs)   bands (ev):

    -2.4776   3.3900   3.3919   3.3937   8.9388   8.9422   8.9455   9.4197
     9.4205   9.4212

          k =-0.1667 0.1667 0.5000 (  2672 PWs)   bands (ev):

    -0.4908  -0.4824   5.1704   5.1706   5.4435   5.4439  10.9098  10.9134
    10.9136  10.9194

          k =-0.5000-0.1667 0.1667 (  2672 PWs)   bands (ev):

    -0.4871  -0.4861   5.1705   5.1706   5.4435   5.4438  10.9123  10.9130
    10.9149  10.9160

          k = 0.5000-0.1667-0.1667 (  2672 PWs)   bands (ev):

    -0.4871  -0.4861   5.1705   5.1706   5.4435   5.4438  10.9131  10.9135
    10.9143  10.9154

          k =-0.1667-0.5000 0.1667 (  2672 PWs)   bands (ev):

    -0.4867  -0.4864   5.1706   5.1706   5.4436   5.4437  10.9122  10.9135
    10.9147  10.9159

          k =-0.1667 0.5000-0.1667 (  2672 PWs)   bands (ev):

    -0.4867  -0.4864   5.1705   5.1706   5.4436   5.4437  10.9129  10.9146
    10.9151  11.4949

          k =-0.5000 0.1667 0.5000 (  2636 PWs)   bands (ev):

     1.4726   1.4737   1.4811   1.4823   7.2036   7.2047   7.2125   7.2139
    13.0171  13.0228

          k =-0.5000 0.5000 0.1667 (  2636 PWs)   bands (ev):

     1.4754   1.4765   1.4783   1.4795   7.2064   7.2076   7.2097   7.2111
    13.0209  13.0217

     the Fermi energy is     8.5366 ev

!    total energy              =    -158.04917138 Ry
     Harris-Foulkes estimate   =    -158.04917207 Ry
     estimated scf accuracy    <       0.00000083 Ry

     total all-electron energy =     -1942.620293 Ry

     The total energy is the sum of the following terms:

     one-electron contribution =      12.62355223 Ry
     hartree contribution      =       0.02539121 Ry
     xc contribution           =     -10.36614399 Ry
     ewald contribution        =     -21.61650270 Ry
     one-center paw contrib.   =    -138.71261955 Ry
     smearing contrib. (-TS)   =      -0.00284857 Ry

     convergence has been achieved in   7 iterations

     Forces acting on atoms (cartesian axes, Ry/au):

     atom    1 type  1   force =     0.00007983   -0.00005004    0.00040308
     atom    2 type  1   force =    -0.00020472    0.00024760    0.00040450
     atom    3 type  1   force =     0.00004617    0.00004343   -0.00051925
     atom    4 type  1   force =     0.00007872   -0.00024099   -0.00028832

     Total force =     0.000927     Total SCF correction =     0.000194
     SCF correction compared to forces is large: reduce conv_thr to get better values


     Computing stress (Cartesian axis) and pressure

          total   stress  (Ry/bohr**3)                   (kbar)     P=   -1.68
  -0.00001144  -0.00000000  -0.00000000         -1.68     -0.00     -0.00
  -0.00000000  -0.00001143  -0.00000000         -0.00     -1.68     -0.00
  -0.00000000  -0.00000000  -0.00001144         -0.00     -0.00     -1.68


     Writing output data file fe_scf_fcc_2.save/

     init_run     :      0.19s CPU      0.21s WALL (       1 calls)
     electrons    :      1.74s CPU      1.83s WALL (       1 calls)
     forces       :      0.04s CPU      0.04s WALL (       1 calls)
     stress       :      0.08s CPU      0.08s WALL (       1 calls)

     Called by init_run:
     wfcinit      :      0.09s CPU      0.10s WALL (       1 calls)
     potinit      :      0.05s CPU      0.05s WALL (       1 calls)
     hinit0       :      0.05s CPU      0.05s WALL (       1 calls)

     Called by electrons:
     c_bands      :      1.25s CPU      1.30s WALL (       8 calls)
     sum_band     :      0.16s CPU      0.18s WALL (       8 calls)
     v_of_rho     :      0.02s CPU      0.02s WALL (       8 calls)
     newd         :      0.01s CPU      0.01s WALL (       8 calls)
     PAW_pot      :      0.34s CPU      0.37s WALL (       8 calls)
     mix_rho      :      0.00s CPU      0.00s WALL (       8 calls)

     Called by c_bands:
     init_us_2    :      0.04s CPU      0.04s WALL (     266 calls)
     cegterg      :      1.17s CPU      1.22s WALL (     112 calls)

     Called by sum_band:
     sum_band:bec :      0.00s CPU      0.00s WALL (     112 calls)
     addusdens    :      0.01s CPU      0.01s WALL (       8 calls)

     Called by *egterg:
     h_psi        :      0.78s CPU      0.81s WALL (     371 calls)
     s_psi        :      0.10s CPU      0.10s WALL (     371 calls)
     g_psi        :      0.00s CPU      0.00s WALL (     245 calls)
     cdiaghg      :      0.07s CPU      0.07s WALL (     343 calls)

     Called by h_psi:
     h_psi:pot    :      0.77s CPU      0.80s WALL (     371 calls)
     h_psi:calbec :      0.14s CPU      0.15s WALL (     371 calls)
     vloc_psi     :      0.52s CPU      0.55s WALL (     371 calls)
     add_vuspsi   :      0.10s CPU      0.10s WALL (     371 calls)

     General routines
     calbec       :      0.23s CPU      0.24s WALL (     553 calls)
     fft          :      0.01s CPU      0.01s WALL (     114 calls)
     ffts         :      0.00s CPU      0.00s WALL (       8 calls)
     fftw         :      0.56s CPU      0.59s WALL (    7180 calls)

     Parallel routines
     fft_scatt_xy :      0.06s CPU      0.06s WALL (    7302 calls)
     fft_scatt_yz :      0.30s CPU      0.31s WALL (    7302 calls)

     PWSCF        :      2.50s CPU      2.63s WALL


   This run was terminated on:  15:59:40  24Feb2020            

=------------------------------------------------------------------------------=
   JOB DONE.
=------------------------------------------------------------------------------=
