
     Program PWSCF v.6.3 starts on 30Oct2019 at  0:46:43 

     This program is part of the open-source Quantum ESPRESSO suite
     for quantum simulation of materials; please cite
         "P. Giannozzi et al., J. Phys.:Condens. Matter 21 395502 (2009);
         "P. Giannozzi et al., J. Phys.:Condens. Matter 29 465901 (2017);
          URL http://www.quantum-espresso.org", 
     in publications or presentations arising from this work. More details at
     http://www.quantum-espresso.org/quote

     Parallel version (MPI), running on     1 processors

     MPI processes distributed on     1 nodes
     Reading input from /cloud/Code/python/py_pwscf_converge/src/example2/wd/runpwscf/file_10283.in
Warning: card &IONS ignored
Warning: card ION_DYNAMICS = 'BFGS', ignored
Warning: card / ignored
Warning: card &CELL ignored
Warning: card CELL_DYNAMICS = 'BFGS', ignored
Warning: card CELL_FACTOR = 2.0, ignored
Warning: card PRESS = 0.0, ignored
Warning: card / ignored

     Current dimensions of program PWSCF are:
     Max number of different atomic species (ntypx) = 10
     Max number of k-points (npk) =  40000
     Max angular momentum in pseudopotentials (lmaxx) =  3
               file Al.pbe-nl-kjpaw_psl.1.0.0.UPF: wavefunction(s)  3S 3P renormalized

     Subspace diagonalization in iterative solution of the eigenvalue problem:
     a serial algorithm will be used


     G-vector sticks info
     --------------------
     sticks:   dense  smooth     PW     G-vecs:    dense   smooth      PW
     Sum         121     121     81                  949      949     515



     bravais-lattice index     =            0
     lattice parameter (alat)  =       4.0400  a.u.
     unit-cell volume          =      65.9393 (a.u.)^3
     number of atoms/cell      =            4
     number of atomic types    =            1
     number of electrons       =        12.00
     number of Kohn-Sham states=           10
     kinetic-energy cutoff     =      42.0000  Ry
     charge density cutoff     =      90.0000  Ry
     convergence threshold     =      1.0E-06
     mixing beta               =       0.1000
     number of iterations used =           10  TF        mixing
     Exchange-correlation      = SLA PW PBX PBC ( 1  4  3  4 0 0)

     celldm(1)=   4.040000  celldm(2)=   0.000000  celldm(3)=   0.000000
     celldm(4)=   0.000000  celldm(5)=   0.000000  celldm(6)=   0.000000

     crystal axes: (cart. coord. in units of alat)
               a(1) = (   1.000000   0.000000   0.000000 )  
               a(2) = (   0.000000   1.000000   0.000000 )  
               a(3) = (   0.000000   0.000000   1.000000 )  

     reciprocal axes: (cart. coord. in units 2 pi/alat)
               b(1) = (  1.000000  0.000000  0.000000 )  
               b(2) = (  0.000000  1.000000  0.000000 )  
               b(3) = (  0.000000  0.000000  1.000000 )  


     PseudoPot. # 1 for Al read from file:
     /opt/pp/Al.pbe-nl-kjpaw_psl.1.0.0.UPF
     MD5 check sum: 1b67f78b73fe58c7924490f171ce8a1e
     Pseudo is Projector augmented-wave + core cor, Zval =  3.0
     Generated using "atomic" code by A. Dal Corso v.6.3
     Shape of augmentation charge: PSQ
     Using radial grid of 1135 points,  4 beta functions with: 
                l(1) =   0
                l(2) =   0
                l(3) =   1
                l(4) =   1
     Q(r) pseudized with 0 coefficients 


     atomic species   valence    mass     pseudopotential
        Al             3.00    26.98200     Al( 1.00)

     No symmetry found



   Cartesian axes

     site n.     atom                  positions (alat units)
         1           Al  tau(   1) = (  -0.0001235   0.0000359   0.0002572  )
         2           Al  tau(   2) = (   0.5003009   0.4992819   0.0002658  )
         3           Al  tau(   3) = (   0.4996490   0.0001153   0.5011170  )
         4           Al  tau(   4) = (  -0.0000756   0.5008267   0.5006943  )

     number of k points=   172  Marzari-Vanderbilt smearing, width (Ry)=  0.0200

     Number of k-points >= 100: set verbosity='high' to print them.

     Dense  grid:      949 G-vectors     FFT dimensions: (  15,  15,  15)

     Estimated max dynamical RAM per process >       9.75 MB

     Initial potential from superposition of free atoms

     starting charge   11.99084, renormalised to   12.00000
     Starting wfcs are   16 randomized atomic wfcs
     Checking if some PAW data can be deallocated... 

     total cpu time spent up to now is        1.3 secs

     Self-consistent Calculation

     iteration #  1     ecut=    42.00 Ry     beta= 0.10
     Davidson diagonalization with overlap
     ethr =  1.00E-02,  avg # of iterations =  4.9

     total cpu time spent up to now is        2.7 secs

     total energy              =    -141.65837248 Ry
     Harris-Foulkes estimate   =    -141.81264305 Ry
     estimated scf accuracy    <       0.18258902 Ry

     iteration #  2     ecut=    42.00 Ry     beta= 0.10
     Davidson diagonalization with overlap
     ethr =  1.52E-03,  avg # of iterations =  1.1

     total cpu time spent up to now is        3.5 secs

     total energy              =    -141.16987521 Ry
     Harris-Foulkes estimate   =    -141.66187185 Ry
     estimated scf accuracy    <       0.15276386 Ry

     iteration #  3     ecut=    42.00 Ry     beta= 0.10
     Davidson diagonalization with overlap
     ethr =  1.27E-03,  avg # of iterations =  2.1

     total cpu time spent up to now is        4.5 secs

     total energy              =    -141.24632956 Ry
     Harris-Foulkes estimate   =    -141.25147849 Ry
     estimated scf accuracy    <       0.01558951 Ry

     iteration #  4     ecut=    42.00 Ry     beta= 0.10
     Davidson diagonalization with overlap
     ethr =  1.30E-04,  avg # of iterations =  1.2

     total cpu time spent up to now is        5.3 secs

     total energy              =    -141.24918817 Ry
     Harris-Foulkes estimate   =    -141.24669938 Ry
     estimated scf accuracy    <       0.01194150 Ry

     iteration #  5     ecut=    42.00 Ry     beta= 0.10
     Davidson diagonalization with overlap
     ethr =  9.95E-05,  avg # of iterations =  2.0

     total cpu time spent up to now is        6.1 secs

     total energy              =    -141.25040744 Ry
     Harris-Foulkes estimate   =    -141.25044427 Ry
     estimated scf accuracy    <       0.00073807 Ry

     iteration #  6     ecut=    42.00 Ry     beta= 0.10
     Davidson diagonalization with overlap
     ethr =  6.15E-06,  avg # of iterations =  2.4

     total cpu time spent up to now is        7.1 secs

     total energy              =    -141.25045852 Ry
     Harris-Foulkes estimate   =    -141.25047159 Ry
     estimated scf accuracy    <       0.00047380 Ry

     iteration #  7     ecut=    42.00 Ry     beta= 0.10
     Davidson diagonalization with overlap
     ethr =  3.95E-06,  avg # of iterations =  1.0

     total cpu time spent up to now is        7.8 secs

     total energy              =    -141.25046633 Ry
     Harris-Foulkes estimate   =    -141.25046277 Ry
     estimated scf accuracy    <       0.00053384 Ry

     iteration #  8     ecut=    42.00 Ry     beta= 0.10
     Davidson diagonalization with overlap
     ethr =  3.95E-06,  avg # of iterations =  1.0

     total cpu time spent up to now is        8.6 secs

     total energy              =    -141.25047221 Ry
     Harris-Foulkes estimate   =    -141.25046744 Ry
     estimated scf accuracy    <       0.00047472 Ry

     iteration #  9     ecut=    42.00 Ry     beta= 0.10
     Davidson diagonalization with overlap
     ethr =  3.95E-06,  avg # of iterations =  1.0

     total cpu time spent up to now is        9.4 secs

     total energy              =    -141.25058549 Ry
     Harris-Foulkes estimate   =    -141.25048157 Ry
     estimated scf accuracy    <       0.00008599 Ry

     iteration # 10     ecut=    42.00 Ry     beta= 0.10
     Davidson diagonalization with overlap
     ethr =  7.17E-07,  avg # of iterations =  2.0

     total cpu time spent up to now is       10.3 secs

     total energy              =    -141.25055516 Ry
     Harris-Foulkes estimate   =    -141.25059506 Ry
     estimated scf accuracy    <       0.00001197 Ry

     iteration # 11     ecut=    42.00 Ry     beta= 0.10
     Davidson diagonalization with overlap
     ethr =  9.98E-08,  avg # of iterations =  2.1

     total cpu time spent up to now is       11.2 secs

     total energy              =    -141.25047252 Ry
     Harris-Foulkes estimate   =    -141.25055749 Ry
     estimated scf accuracy    <       0.00000767 Ry

     iteration # 12     ecut=    42.00 Ry     beta= 0.10
     Davidson diagonalization with overlap
     ethr =  6.39E-08,  avg # of iterations =  2.4

     total cpu time spent up to now is       12.1 secs

     total energy              =    -141.25047921 Ry
     Harris-Foulkes estimate   =    -141.25047710 Ry
     estimated scf accuracy    <       0.00000165 Ry

     iteration # 13     ecut=    42.00 Ry     beta= 0.10
     Davidson diagonalization with overlap
     ethr =  1.38E-08,  avg # of iterations =  2.7

     total cpu time spent up to now is       13.1 secs

     total energy              =    -141.25047359 Ry
     Harris-Foulkes estimate   =    -141.25048049 Ry
     estimated scf accuracy    <       0.00000406 Ry

     iteration # 14     ecut=    42.00 Ry     beta= 0.10
     Davidson diagonalization with overlap
     ethr =  1.38E-08,  avg # of iterations =  2.0

     total cpu time spent up to now is       14.1 secs

     total energy              =    -141.25047403 Ry
     Harris-Foulkes estimate   =    -141.25047430 Ry
     estimated scf accuracy    <       0.00000200 Ry

     iteration # 15     ecut=    42.00 Ry     beta= 0.10
     Davidson diagonalization with overlap
     ethr =  1.38E-08,  avg # of iterations =  1.0

     total cpu time spent up to now is       14.8 secs

     total energy              =    -141.25047402 Ry
     Harris-Foulkes estimate   =    -141.25047404 Ry
     estimated scf accuracy    <       0.00000149 Ry

     iteration # 16     ecut=    42.00 Ry     beta= 0.10
     Davidson diagonalization with overlap
     ethr =  1.24E-08,  avg # of iterations =  1.0

     total cpu time spent up to now is       16.0 secs

     total energy              =    -141.25047429 Ry
     Harris-Foulkes estimate   =    -141.25047403 Ry
     estimated scf accuracy    <       0.00000120 Ry

     iteration # 17     ecut=    42.00 Ry     beta= 0.10
     Davidson diagonalization with overlap
     ethr =  1.00E-08,  avg # of iterations =  1.0

     total cpu time spent up to now is       18.3 secs

     End of self-consistent calculation

     Number of k-points >= 100: set verbosity='high' to print the bands.

     the Fermi energy is    52.7616 ev

!    total energy              =    -141.25047423 Ry
     Harris-Foulkes estimate   =    -141.25047431 Ry
     estimated scf accuracy    <       0.00000005 Ry

     total all-electron energy =     -1925.821596 Ry

     The total energy is the sum of the following terms:

     one-electron contribution =      58.66504938 Ry
     hartree contribution      =       0.21631528 Ry
     xc contribution           =     -17.28712493 Ry
     ewald contribution        =     -40.85514773 Ry
     one-center paw contrib.   =    -141.98943059 Ry
     smearing contrib. (-TS)   =      -0.00013564 Ry

     convergence has been achieved in  17 iterations

     Forces acting on atoms (cartesian axes, Ry/au):

     atom    1 type  1   force =     0.00208197   -0.00022025    0.01646585
     atom    2 type  1   force =    -0.00437690    0.00643726    0.01639479
     atom    3 type  1   force =     0.00057873   -0.00086575   -0.01802364
     atom    4 type  1   force =     0.00171620   -0.00535126   -0.01483700

     Total force =     0.034388     Total SCF correction =     0.000009


     Computing stress (Cartesian axis) and pressure

          total   stress  (Ry/bohr**3)                   (kbar)     P=59695.28
   0.40580366   0.00000099   0.00000086      59695.77      0.15      0.13
   0.00000099   0.40579670  -0.00000130          0.15  59694.75     -0.19
   0.00000086  -0.00000130   0.40580054          0.13     -0.19  59695.31


     Writing output data file fe_scf_fcc_2.save/

     init_run     :      0.79s CPU      0.82s WALL (       1 calls)
     electrons    :     16.59s CPU     17.04s WALL (       1 calls)
     forces       :      0.28s CPU      0.28s WALL (       1 calls)
     stress       :      1.08s CPU      1.08s WALL (       1 calls)

     Called by init_run:
     wfcinit      :      0.38s CPU      0.39s WALL (       1 calls)
     potinit      :      0.24s CPU      0.25s WALL (       1 calls)
     hinit0       :      0.18s CPU      0.18s WALL (       1 calls)

     Called by electrons:
     c_bands      :     10.02s CPU     10.28s WALL (      17 calls)
     sum_band     :      1.68s CPU      1.71s WALL (      17 calls)
     v_of_rho     :      0.04s CPU      0.04s WALL (      18 calls)
     newd         :      0.03s CPU      0.03s WALL (      18 calls)
     PAW_pot      :      5.05s CPU      5.21s WALL (      18 calls)
     mix_rho      :      0.00s CPU      0.00s WALL (      17 calls)

     Called by c_bands:
     init_us_2    :      0.84s CPU      0.77s WALL (    6364 calls)
     cegterg      :      8.94s CPU      9.19s WALL (    2924 calls)

     Called by sum_band:
     sum_band:bec :      0.02s CPU      0.02s WALL (    2924 calls)
     addusdens    :      0.02s CPU      0.02s WALL (      17 calls)

     Called by *egterg:
     h_psi        :      5.91s CPU      6.11s WALL (    8406 calls)
     s_psi        :      0.55s CPU      0.58s WALL (    8406 calls)
     g_psi        :      0.12s CPU      0.10s WALL (    5310 calls)
     cdiaghg      :      1.30s CPU      1.28s WALL (    8234 calls)

     Called by h_psi:
     h_psi:pot    :      5.88s CPU      6.05s WALL (    8406 calls)
     h_psi:calbec :      0.60s CPU      0.56s WALL (    8406 calls)
     vloc_psi     :      4.65s CPU      4.87s WALL (    8406 calls)
     add_vuspsi   :      0.58s CPU      0.60s WALL (    8406 calls)

     General routines
     calbec       :      1.00s CPU      0.94s WALL (   12190 calls)
     fft          :      0.02s CPU      0.01s WALL (     224 calls)
     ffts         :      0.00s CPU      0.00s WALL (      17 calls)
     fftw         :      4.64s CPU      4.91s WALL (  170994 calls)

     Parallel routines

     PWSCF        :    19.29s CPU        19.82s WALL


   This run was terminated on:   0:47: 3  30Oct2019            

=------------------------------------------------------------------------------=
   JOB DONE.
=------------------------------------------------------------------------------=
