
     Program PWSCF v.6.3 starts on 30Oct2019 at  0:45: 6 

     This program is part of the open-source Quantum ESPRESSO suite
     for quantum simulation of materials; please cite
         "P. Giannozzi et al., J. Phys.:Condens. Matter 21 395502 (2009);
         "P. Giannozzi et al., J. Phys.:Condens. Matter 29 465901 (2017);
          URL http://www.quantum-espresso.org", 
     in publications or presentations arising from this work. More details at
     http://www.quantum-espresso.org/quote

     Parallel version (MPI), running on     1 processors

     MPI processes distributed on     1 nodes
     Reading input from /cloud/Code/python/py_pwscf_converge/src/example2/wd/runpwscf/file_10275.in
Warning: card &IONS ignored
Warning: card ION_DYNAMICS = 'BFGS', ignored
Warning: card / ignored
Warning: card &CELL ignored
Warning: card CELL_DYNAMICS = 'BFGS', ignored
Warning: card CELL_FACTOR = 2.0, ignored
Warning: card PRESS = 0.0, ignored
Warning: card / ignored

     Current dimensions of program PWSCF are:
     Max number of different atomic species (ntypx) = 10
     Max number of k-points (npk) =  40000
     Max angular momentum in pseudopotentials (lmaxx) =  3
               file Al.pbe-nl-kjpaw_psl.1.0.0.UPF: wavefunction(s)  3S 3P renormalized

     Subspace diagonalization in iterative solution of the eigenvalue problem:
     a serial algorithm will be used


     G-vector sticks info
     --------------------
     sticks:   dense  smooth     PW     G-vecs:    dense   smooth      PW
     Sum         121     121     81                  949      949     515



     bravais-lattice index     =            0
     lattice parameter (alat)  =       4.0400  a.u.
     unit-cell volume          =      65.9393 (a.u.)^3
     number of atoms/cell      =            4
     number of atomic types    =            1
     number of electrons       =        12.00
     number of Kohn-Sham states=           10
     kinetic-energy cutoff     =      42.0000  Ry
     charge density cutoff     =      90.0000  Ry
     convergence threshold     =      1.0E-06
     mixing beta               =       0.1000
     number of iterations used =           10  TF        mixing
     Exchange-correlation      = SLA PW PBX PBC ( 1  4  3  4 0 0)

     celldm(1)=   4.040000  celldm(2)=   0.000000  celldm(3)=   0.000000
     celldm(4)=   0.000000  celldm(5)=   0.000000  celldm(6)=   0.000000

     crystal axes: (cart. coord. in units of alat)
               a(1) = (   1.000000   0.000000   0.000000 )  
               a(2) = (   0.000000   1.000000   0.000000 )  
               a(3) = (   0.000000   0.000000   1.000000 )  

     reciprocal axes: (cart. coord. in units 2 pi/alat)
               b(1) = (  1.000000  0.000000  0.000000 )  
               b(2) = (  0.000000  1.000000  0.000000 )  
               b(3) = (  0.000000  0.000000  1.000000 )  


     PseudoPot. # 1 for Al read from file:
     /opt/pp/Al.pbe-nl-kjpaw_psl.1.0.0.UPF
     MD5 check sum: 1b67f78b73fe58c7924490f171ce8a1e
     Pseudo is Projector augmented-wave + core cor, Zval =  3.0
     Generated using "atomic" code by A. Dal Corso v.6.3
     Shape of augmentation charge: PSQ
     Using radial grid of 1135 points,  4 beta functions with: 
                l(1) =   0
                l(2) =   0
                l(3) =   1
                l(4) =   1
     Q(r) pseudized with 0 coefficients 


     atomic species   valence    mass     pseudopotential
        Al             3.00    26.98200     Al( 1.00)

     No symmetry found



   Cartesian axes

     site n.     atom                  positions (alat units)
         1           Al  tau(   1) = (  -0.0001235   0.0000359   0.0002572  )
         2           Al  tau(   2) = (   0.5003009   0.4992819   0.0002658  )
         3           Al  tau(   3) = (   0.4996490   0.0001153   0.5011170  )
         4           Al  tau(   4) = (  -0.0000756   0.5008267   0.5006943  )

     number of k points=    63  Marzari-Vanderbilt smearing, width (Ry)=  0.0400
                       cart. coord. in units 2pi/alat
        k(    1) = (   0.1000000   0.1000000   0.1000000), wk =   0.0320000
        k(    2) = (   0.1000000   0.1000000   0.3000000), wk =   0.0320000
        k(    3) = (   0.1000000   0.1000000  -0.5000000), wk =   0.0320000
        k(    4) = (   0.1000000   0.3000000   0.3000000), wk =   0.0320000
        k(    5) = (   0.1000000   0.3000000  -0.5000000), wk =   0.0320000
        k(    6) = (   0.1000000  -0.5000000  -0.5000000), wk =   0.0320000
        k(    7) = (   0.3000000   0.3000000   0.3000000), wk =   0.0320000
        k(    8) = (   0.3000000   0.3000000  -0.5000000), wk =   0.0320000
        k(    9) = (   0.3000000  -0.5000000  -0.5000000), wk =   0.0320000
        k(   10) = (  -0.5000000  -0.5000000  -0.5000000), wk =   0.0160000
        k(   11) = (  -0.1000000  -0.1000000   0.1000000), wk =   0.0320000
        k(   12) = (  -0.1000000   0.1000000  -0.1000000), wk =   0.0320000
        k(   13) = (   0.1000000  -0.1000000  -0.1000000), wk =   0.0320000
        k(   14) = (  -0.1000000  -0.1000000   0.3000000), wk =   0.0320000
        k(   15) = (  -0.1000000   0.1000000  -0.3000000), wk =   0.0320000
        k(   16) = (   0.1000000  -0.1000000  -0.3000000), wk =   0.0320000
        k(   17) = (   0.3000000  -0.1000000   0.1000000), wk =   0.0320000
        k(   18) = (  -0.3000000  -0.1000000  -0.1000000), wk =   0.0320000
        k(   19) = (   0.3000000   0.1000000  -0.1000000), wk =   0.0320000
        k(   20) = (  -0.3000000   0.1000000   0.1000000), wk =   0.0320000
        k(   21) = (  -0.1000000   0.3000000   0.1000000), wk =   0.0320000
        k(   22) = (  -0.1000000  -0.3000000  -0.1000000), wk =   0.0320000
        k(   23) = (   0.1000000   0.3000000  -0.1000000), wk =   0.0320000
        k(   24) = (   0.1000000  -0.3000000   0.1000000), wk =   0.0320000
        k(   25) = (  -0.1000000   0.1000000   0.5000000), wk =   0.0320000
        k(   26) = (  -0.5000000  -0.1000000   0.1000000), wk =   0.0320000
        k(   27) = (   0.5000000  -0.1000000  -0.1000000), wk =   0.0320000
        k(   28) = (  -0.1000000  -0.5000000   0.1000000), wk =   0.0320000
        k(   29) = (  -0.1000000   0.5000000  -0.1000000), wk =   0.0320000
        k(   30) = (  -0.1000000  -0.3000000   0.3000000), wk =   0.0320000
        k(   31) = (  -0.1000000   0.3000000  -0.3000000), wk =   0.0320000
        k(   32) = (   0.1000000  -0.3000000  -0.3000000), wk =   0.0320000
        k(   33) = (   0.3000000   0.1000000  -0.3000000), wk =   0.0320000
        k(   34) = (  -0.3000000  -0.1000000  -0.3000000), wk =   0.0320000
        k(   35) = (   0.3000000  -0.1000000   0.3000000), wk =   0.0320000
        k(   36) = (  -0.3000000   0.1000000   0.3000000), wk =   0.0320000
        k(   37) = (   0.3000000  -0.3000000   0.1000000), wk =   0.0320000
        k(   38) = (  -0.3000000  -0.3000000  -0.1000000), wk =   0.0320000
        k(   39) = (   0.3000000   0.3000000  -0.1000000), wk =   0.0320000
        k(   40) = (  -0.3000000   0.3000000   0.1000000), wk =   0.0320000
        k(   41) = (  -0.1000000   0.3000000   0.5000000), wk =   0.0320000
        k(   42) = (   0.3000000   0.1000000   0.5000000), wk =   0.0320000
        k(   43) = (   0.3000000  -0.1000000  -0.5000000), wk =   0.0320000
        k(   44) = (  -0.5000000  -0.3000000   0.1000000), wk =   0.0320000
        k(   45) = (   0.5000000  -0.3000000  -0.1000000), wk =   0.0320000
        k(   46) = (  -0.1000000  -0.5000000   0.3000000), wk =   0.0320000
        k(   47) = (  -0.1000000   0.5000000  -0.3000000), wk =   0.0320000
        k(   48) = (   0.3000000  -0.5000000   0.1000000), wk =   0.0320000
        k(   49) = (   0.3000000   0.5000000  -0.1000000), wk =   0.0320000
        k(   50) = (  -0.5000000   0.1000000   0.3000000), wk =   0.0320000
        k(   51) = (   0.5000000  -0.1000000   0.3000000), wk =   0.0320000
        k(   52) = (  -0.5000000   0.1000000   0.5000000), wk =   0.0320000
        k(   53) = (  -0.5000000   0.5000000   0.1000000), wk =   0.0320000
        k(   54) = (  -0.3000000  -0.3000000   0.3000000), wk =   0.0320000
        k(   55) = (  -0.3000000   0.3000000  -0.3000000), wk =   0.0320000
        k(   56) = (   0.3000000  -0.3000000  -0.3000000), wk =   0.0320000
        k(   57) = (  -0.3000000   0.3000000   0.5000000), wk =   0.0320000
        k(   58) = (  -0.5000000  -0.3000000   0.3000000), wk =   0.0320000
        k(   59) = (   0.5000000  -0.3000000  -0.3000000), wk =   0.0320000
        k(   60) = (  -0.3000000  -0.5000000   0.3000000), wk =   0.0320000
        k(   61) = (  -0.3000000   0.5000000  -0.3000000), wk =   0.0320000
        k(   62) = (  -0.5000000   0.3000000   0.5000000), wk =   0.0320000
        k(   63) = (  -0.5000000   0.5000000   0.3000000), wk =   0.0320000

     Dense  grid:      949 G-vectors     FFT dimensions: (  15,  15,  15)

     Estimated max dynamical RAM per process >       4.71 MB

     Initial potential from superposition of free atoms

     starting charge   11.99084, renormalised to   12.00000
     Starting wfcs are   16 randomized atomic wfcs
     Checking if some PAW data can be deallocated... 

     total cpu time spent up to now is        1.0 secs

     Self-consistent Calculation

     iteration #  1     ecut=    42.00 Ry     beta= 0.10
     Davidson diagonalization with overlap
     ethr =  1.00E-02,  avg # of iterations =  4.7

     total cpu time spent up to now is        1.7 secs

     total energy              =    -141.66432144 Ry
     Harris-Foulkes estimate   =    -141.81960750 Ry
     estimated scf accuracy    <       0.18342672 Ry

     iteration #  2     ecut=    42.00 Ry     beta= 0.10
     Davidson diagonalization with overlap
     ethr =  1.53E-03,  avg # of iterations =  1.1

     total cpu time spent up to now is        2.2 secs

     total energy              =    -141.17149793 Ry
     Harris-Foulkes estimate   =    -141.66784945 Ry
     estimated scf accuracy    <       0.15325446 Ry

     iteration #  3     ecut=    42.00 Ry     beta= 0.10
     Davidson diagonalization with overlap
     ethr =  1.28E-03,  avg # of iterations =  2.0

     total cpu time spent up to now is        2.7 secs

     total energy              =    -141.24532178 Ry
     Harris-Foulkes estimate   =    -141.24729301 Ry
     estimated scf accuracy    <       0.01561142 Ry

     iteration #  4     ecut=    42.00 Ry     beta= 0.10
     Davidson diagonalization with overlap
     ethr =  1.30E-04,  avg # of iterations =  1.3

     total cpu time spent up to now is        3.1 secs

     total energy              =    -141.24792999 Ry
     Harris-Foulkes estimate   =    -141.24569591 Ry
     estimated scf accuracy    <       0.01172163 Ry

     iteration #  5     ecut=    42.00 Ry     beta= 0.10
     Davidson diagonalization with overlap
     ethr =  9.77E-05,  avg # of iterations =  2.0

     total cpu time spent up to now is        3.6 secs

     total energy              =    -141.25130620 Ry
     Harris-Foulkes estimate   =    -141.24925163 Ry
     estimated scf accuracy    <       0.00056626 Ry

     iteration #  6     ecut=    42.00 Ry     beta= 0.10
     Davidson diagonalization with overlap
     ethr =  4.72E-06,  avg # of iterations =  2.7

     total cpu time spent up to now is        4.1 secs

     total energy              =    -141.24924193 Ry
     Harris-Foulkes estimate   =    -141.25158465 Ry
     estimated scf accuracy    <       0.00002908 Ry

     iteration #  7     ecut=    42.00 Ry     beta= 0.10
     Davidson diagonalization with overlap
     ethr =  2.42E-07,  avg # of iterations =  3.4

     total cpu time spent up to now is        4.7 secs

     total energy              =    -141.24927997 Ry
     Harris-Foulkes estimate   =    -141.24939436 Ry
     estimated scf accuracy    <       0.00011293 Ry

     iteration #  8     ecut=    42.00 Ry     beta= 0.10
     Davidson diagonalization with overlap
     ethr =  2.42E-07,  avg # of iterations =  2.0

     total cpu time spent up to now is        5.2 secs

     total energy              =    -141.24929187 Ry
     Harris-Foulkes estimate   =    -141.24929279 Ry
     estimated scf accuracy    <       0.00001740 Ry

     iteration #  9     ecut=    42.00 Ry     beta= 0.10
     Davidson diagonalization with overlap
     ethr =  1.45E-07,  avg # of iterations =  1.0

     total cpu time spent up to now is        5.7 secs

     total energy              =    -141.24929040 Ry
     Harris-Foulkes estimate   =    -141.24929202 Ry
     estimated scf accuracy    <       0.00001601 Ry

     iteration # 10     ecut=    42.00 Ry     beta= 0.10
     Davidson diagonalization with overlap
     ethr =  1.33E-07,  avg # of iterations =  1.0

     total cpu time spent up to now is        6.1 secs

     End of self-consistent calculation

          k = 0.1000 0.1000 0.1000 (   296 PWs)   bands (ev):

    30.3972  41.2149  41.2297  41.2465  52.3519  52.3687  52.3853  54.7078
    54.7168  54.7261

          k = 0.1000 0.1000 0.3000 (   304 PWs)   bands (ev):

    32.7996  39.8182  43.1347  43.1550  52.2144  52.2325  54.4410  54.4524
    54.6186  58.7198

          k = 0.1000 0.1000-0.5000 (   306 PWs)   bands (ev):

    36.5001  36.5415  44.5082  44.5085  52.1593  52.1595  54.2310  54.2311
    59.1411  59.2041

          k = 0.1000 0.3000 0.3000 (   297 PWs)   bands (ev):

    34.9584  41.6717  41.7096  44.5152  50.9174  53.2432  53.2923  55.4884
    58.4206  58.4233

          k = 0.1000 0.3000-0.5000 (   304 PWs)   bands (ev):

    38.3980  38.4409  44.0304  44.0539  51.6273  51.6338  56.4063  56.4369
    56.9952  56.9977

          k = 0.1000-0.5000-0.5000 (   308 PWs)   bands (ev):

    41.3789  41.3872  41.4277  41.4360  53.6107  53.6226  53.6517  53.6639
    61.3266  61.3326

          k = 0.3000 0.3000 0.3000 (   305 PWs)   bands (ev):

    36.8323  43.3699  43.4042  43.4397  49.7640  49.8028  49.8416  56.2820
    61.5613  61.5660

          k = 0.3000 0.3000-0.5000 (   304 PWs)   bands (ev):

    40.0071  40.0516  45.2849  45.2858  47.4882  47.4892  52.3259  52.3265
    63.0276  63.0277

          k = 0.3000-0.5000-0.5000 (   292 PWs)   bands (ev):

    42.7930  42.8028  42.8461  42.8560  48.8810  48.8925  48.9256  48.9372
    69.0270  69.0393

          k =-0.5000-0.5000-0.5000 (   304 PWs)   bands (ev):

    44.9349  44.9364  44.9386  44.9387  45.7463  45.7470  45.7492  45.7508
    75.1895  75.1907

          k =-0.1000-0.1000 0.1000 (   296 PWs)   bands (ev):

    30.3972  41.2181  41.2300  41.2430  52.3554  52.3686  52.3819  54.7097
    54.7169  54.7242

          k =-0.1000 0.1000-0.1000 (   296 PWs)   bands (ev):

    30.3972  41.2209  41.2308  41.2394  52.3589  52.3687  52.3784  54.7116
    54.7169  54.7223

          k = 0.1000-0.1000-0.1000 (   296 PWs)   bands (ev):

    30.3972  41.2194  41.2303  41.2414  52.3570  52.3687  52.3802  54.7106
    54.7169  54.7233

          k =-0.1000-0.1000 0.3000 (   304 PWs)   bands (ev):

    32.7996  39.8183  43.1347  43.1549  52.2144  52.2326  54.4410  54.4525
    54.6183  58.7198

          k =-0.1000 0.1000-0.3000 (   304 PWs)   bands (ev):

    32.7996  39.8182  43.1402  43.1494  52.2193  52.2276  54.4441  54.4493
    54.6184  58.7197

          k = 0.1000-0.1000-0.3000 (   304 PWs)   bands (ev):

    32.7996  39.8182  43.1402  43.1495  52.2193  52.2276  54.4441  54.4493
    54.6186  58.7197

          k = 0.3000-0.1000 0.1000 (   304 PWs)   bands (ev):

    32.7996  39.8182  43.1401  43.1495  52.2191  52.2275  54.4442  54.4495
    54.6185  58.7198

          k =-0.3000-0.1000-0.1000 (   304 PWs)   bands (ev):

    32.7996  39.8181  43.1362  43.1535  52.2158  52.2312  54.4415  54.4512
    54.6193  58.7198

          k = 0.3000 0.1000-0.1000 (   304 PWs)   bands (ev):

    32.7996  39.8181  43.1401  43.1496  52.2191  52.2275  54.4442  54.4495
    54.6186  58.7198

          k =-0.3000 0.1000 0.1000 (   304 PWs)   bands (ev):

    32.7996  39.8182  43.1362  43.1534  52.2158  52.2313  54.4416  54.4513
    54.6188  58.7198

          k =-0.1000 0.3000 0.1000 (   304 PWs)   bands (ev):

    32.7996  39.8181  43.1437  43.1463  52.2223  52.2247  54.4459  54.4474
    54.6184  58.7198

          k =-0.1000-0.3000-0.1000 (   304 PWs)   bands (ev):

    32.7996  39.8180  43.1399  43.1501  52.2189  52.2279  54.4439  54.4495
    54.6185  58.7198

          k = 0.1000 0.3000-0.1000 (   304 PWs)   bands (ev):

    32.7996  39.8180  43.1437  43.1463  52.2223  52.2246  54.4456  54.4472
    54.6189  58.7198

          k = 0.1000-0.3000 0.1000 (   304 PWs)   bands (ev):

    32.7996  39.8181  43.1399  43.1500  52.2190  52.2280  54.4438  54.4495
    54.6184  58.7198

          k =-0.1000 0.1000 0.5000 (   306 PWs)   bands (ev):

    36.5001  36.5415  44.5082  44.5085  52.1593  52.1594  54.2310  54.2312
    59.1411  59.2041

          k =-0.5000-0.1000 0.1000 (   306 PWs)   bands (ev):

    36.5182  36.5233  44.5083  44.5085  52.1591  52.1592  54.2312  54.2314
    59.1691  59.1763

          k = 0.5000-0.1000-0.1000 (   306 PWs)   bands (ev):

    36.5182  36.5233  44.5083  44.5085  52.1595  52.1596  54.2308  54.2309
    59.1692  59.1764

          k =-0.1000-0.5000 0.1000 (   306 PWs)   bands (ev):

    36.5201  36.5214  44.5085  44.5087  52.1593  52.1594  54.2309  54.2311
    59.1716  59.1737

          k =-0.1000 0.5000-0.1000 (   306 PWs)   bands (ev):

    36.5201  36.5214  44.5085  44.5087  52.1592  52.1594  54.2311  54.2311
    59.1715  59.1736

          k =-0.1000-0.3000 0.3000 (   297 PWs)   bands (ev):

    34.9583  41.6804  41.7010  44.5150  50.9176  53.2543  53.2811  55.4885
    58.4211  58.4226

          k =-0.1000 0.3000-0.3000 (   297 PWs)   bands (ev):

    34.9583  41.6804  41.7010  44.5150  50.9176  53.2542  53.2810  55.4885
    58.4211  58.4226

          k = 0.1000-0.3000-0.3000 (   297 PWs)   bands (ev):

    34.9584  41.6717  41.7097  44.5151  50.9175  53.2432  53.2923  55.4884
    58.4204  58.4231

          k = 0.3000 0.1000-0.3000 (   297 PWs)   bands (ev):

    34.9584  41.6878  41.6935  44.5150  50.9173  53.2641  53.2715  55.4885
    58.4216  58.4222

          k =-0.3000-0.1000-0.3000 (   297 PWs)   bands (ev):

    34.9584  41.6795  41.7018  44.5149  50.9175  53.2535  53.2823  55.4885
    58.4209  58.4225

          k = 0.3000-0.1000 0.3000 (   297 PWs)   bands (ev):

    34.9584  41.6796  41.7018  44.5149  50.9174  53.2533  53.2822  55.4887
    58.4210  58.4226

          k =-0.3000 0.1000 0.3000 (   297 PWs)   bands (ev):

    34.9584  41.6878  41.6935  44.5150  50.9175  53.2642  53.2716  55.4884
    58.4213  58.4219

          k = 0.3000-0.3000 0.1000 (   297 PWs)   bands (ev):

    34.9584  41.6805  41.7008  44.5151  50.9173  53.2544  53.2809  55.4885
    58.4212  58.4227

          k =-0.3000-0.3000-0.1000 (   297 PWs)   bands (ev):

    34.9584  41.6685  41.7129  44.5150  50.9176  53.2389  53.2966  55.4883
    58.4203  58.4235

          k = 0.3000 0.3000-0.1000 (   297 PWs)   bands (ev):

    34.9584  41.6685  41.7129  44.5150  50.9175  53.2388  53.2965  55.4886
    58.4203  58.4235

          k =-0.3000 0.3000 0.1000 (   297 PWs)   bands (ev):

    34.9584  41.6805  41.7008  44.5151  50.9176  53.2546  53.2811  55.4880
    58.4211  58.4226

          k =-0.1000 0.3000 0.5000 (   304 PWs)   bands (ev):

    38.3980  38.4409  44.0305  44.0539  51.6272  51.6337  56.4060  56.4367
    56.9955  56.9980

          k = 0.3000 0.1000 0.5000 (   304 PWs)   bands (ev):

    38.3980  38.4409  44.0304  44.0538  51.6274  51.6339  56.4065  56.4372
    56.9950  56.9974

          k = 0.3000-0.1000-0.5000 (   304 PWs)   bands (ev):

    38.3980  38.4409  44.0304  44.0539  51.6273  51.6338  56.4064  56.4371
    56.9952  56.9976

          k =-0.5000-0.3000 0.1000 (   304 PWs)   bands (ev):

    38.4168  38.4220  44.0408  44.0436  51.6299  51.6307  56.4204  56.4239
    56.9960  56.9963

          k = 0.5000-0.3000-0.1000 (   304 PWs)   bands (ev):

    38.4168  38.4220  44.0408  44.0436  51.6302  51.6310  56.4176  56.4216
    56.9974  56.9995

          k =-0.1000-0.5000 0.3000 (   304 PWs)   bands (ev):

    38.4187  38.4200  44.0420  44.0428  51.6304  51.6306  56.4203  56.4219
    56.9962  56.9976

          k =-0.1000 0.5000-0.3000 (   304 PWs)   bands (ev):

    38.4187  38.4201  44.0419  44.0427  51.6304  51.6306  56.4206  56.4221
    56.9960  56.9974

          k = 0.3000-0.5000 0.1000 (   304 PWs)   bands (ev):

    38.4187  38.4201  44.0419  44.0427  51.6302  51.6306  56.4202  56.4223
    56.9960  56.9978

          k = 0.3000 0.5000-0.1000 (   304 PWs)   bands (ev):

    38.4187  38.4201  44.0419  44.0427  51.6304  51.6306  56.4185  56.4221
    56.9960  56.9994

          k =-0.5000 0.1000 0.3000 (   304 PWs)   bands (ev):

    38.4168  38.4220  44.0408  44.0436  51.6303  51.6311  56.4194  56.4230
    56.9963  56.9974

          k = 0.5000-0.1000 0.3000 (   304 PWs)   bands (ev):

    38.4168  38.4220  44.0408  44.0436  51.6301  51.6308  56.4203  56.4238
    56.9960  56.9964

          k =-0.5000 0.1000 0.5000 (   308 PWs)   bands (ev):

    41.3817  41.3909  41.4239  41.4331  53.6216  53.6332  53.6416  53.6531
    61.3307  61.3360

          k =-0.5000 0.5000 0.1000 (   308 PWs)   bands (ev):

    41.3863  41.3977  41.4171  41.4286  53.6059  53.6229  53.6515  53.6684
    61.3263  61.3341

          k =-0.3000-0.3000 0.3000 (   305 PWs)   bands (ev):

    36.8323  43.3771  43.4044  43.4322  49.7721  49.8027  49.8334  56.2821
    61.5623  61.5658

          k =-0.3000 0.3000-0.3000 (   305 PWs)   bands (ev):

    36.8322  43.3841  43.4048  43.4248  49.7801  49.8027  49.8254  56.2822
    61.5630  61.5659

          k = 0.3000-0.3000-0.3000 (   305 PWs)   bands (ev):

    36.8323  43.3804  43.4045  43.4288  49.7760  49.8028  49.8298  56.2818
    61.5627  61.5660

          k =-0.3000 0.3000 0.5000 (   304 PWs)   bands (ev):

    40.0071  40.0515  45.2855  45.2859  47.4881  47.4886  52.3259  52.3266
    63.0276  63.0277

          k =-0.5000-0.3000 0.3000 (   304 PWs)   bands (ev):

    40.0266  40.0319  45.2857  45.2859  47.4880  47.4883  52.3262  52.3264
    63.0276  63.0277

          k = 0.5000-0.3000-0.3000 (   304 PWs)   bands (ev):

    40.0266  40.0319  45.2854  45.2857  47.4885  47.4886  52.3261  52.3263
    63.0276  63.0278

          k =-0.3000-0.5000 0.3000 (   304 PWs)   bands (ev):

    40.0285  40.0299  45.2858  45.2861  47.4882  47.4882  52.3261  52.3263
    63.0276  63.0278

          k =-0.3000 0.5000-0.3000 (   304 PWs)   bands (ev):

    40.0285  40.0300  45.2858  45.2860  47.4881  47.4883  52.3261  52.3263
    63.0276  63.0278

          k =-0.5000 0.3000 0.5000 (   292 PWs)   bands (ev):

    42.7969  42.8075  42.8414  42.8520  48.8892  48.9006  48.9177  48.9290
    69.0231  69.0310

          k =-0.5000 0.5000 0.3000 (   292 PWs)   bands (ev):

    42.7992  42.8129  42.8361  42.8498  48.8792  48.8954  48.9228  48.9390
    69.0206  69.0330

     the Fermi energy is    52.5793 ev

!    total energy              =    -141.24928858 Ry
     Harris-Foulkes estimate   =    -141.24929098 Ry
     estimated scf accuracy    <       0.00000026 Ry

     total all-electron energy =     -1925.820411 Ry

     The total energy is the sum of the following terms:

     one-electron contribution =      58.68722378 Ry
     hartree contribution      =       0.21884512 Ry
     xc contribution           =     -17.29130618 Ry
     ewald contribution        =     -40.85514773 Ry
     one-center paw contrib.   =    -142.00936472 Ry
     smearing contrib. (-TS)   =       0.00046115 Ry

     convergence has been achieved in  10 iterations

     Forces acting on atoms (cartesian axes, Ry/au):

     atom    1 type  1   force =     0.00208815   -0.00031884    0.01646966
     atom    2 type  1   force =    -0.00428267    0.00607338    0.01640923
     atom    3 type  1   force =     0.00043411   -0.00076353   -0.01800402
     atom    4 type  1   force =     0.00176040   -0.00499101   -0.01487487

     Total force =     0.034269     Total SCF correction =     0.000023


     Computing stress (Cartesian axis) and pressure

          total   stress  (Ry/bohr**3)                   (kbar)     P=59896.61
   0.40717366   0.00000077   0.00000076      59897.30      0.11      0.11
   0.00000077   0.40716504  -0.00000125          0.11  59896.03     -0.18
   0.00000076  -0.00000125   0.40716816          0.11     -0.18  59896.49


     Writing output data file fe_scf_fcc_2.save/

     init_run     :      0.57s CPU      0.57s WALL (       1 calls)
     electrons    :      4.92s CPU      5.07s WALL (       1 calls)
     forces       :      0.04s CPU      0.04s WALL (       1 calls)
     stress       :      0.13s CPU      0.13s WALL (       1 calls)

     Called by init_run:
     wfcinit      :      0.14s CPU      0.15s WALL (       1 calls)
     potinit      :      0.24s CPU      0.25s WALL (       1 calls)
     hinit0       :      0.18s CPU      0.17s WALL (       1 calls)

     Called by electrons:
     c_bands      :      2.21s CPU      2.26s WALL (      10 calls)
     sum_band     :      0.32s CPU      0.34s WALL (      10 calls)
     v_of_rho     :      0.02s CPU      0.02s WALL (      11 calls)
     newd         :      0.01s CPU      0.02s WALL (      11 calls)
     PAW_pot      :      2.60s CPU      2.67s WALL (      11 calls)
     mix_rho      :      0.00s CPU      0.00s WALL (      10 calls)

     Called by c_bands:
     init_us_2    :      0.16s CPU      0.14s WALL (    1449 calls)
     cegterg      :      1.98s CPU      2.05s WALL (     630 calls)

     Called by sum_band:
     sum_band:bec :      0.01s CPU      0.00s WALL (     630 calls)
     addusdens    :      0.01s CPU      0.01s WALL (      10 calls)

     Called by *egterg:
     h_psi        :      1.30s CPU      1.35s WALL (    2029 calls)
     s_psi        :      0.11s CPU      0.13s WALL (    2029 calls)
     g_psi        :      0.02s CPU      0.02s WALL (    1336 calls)
     cdiaghg      :      0.31s CPU      0.33s WALL (    1966 calls)

     Called by h_psi:
     h_psi:pot    :      1.29s CPU      1.33s WALL (    2029 calls)
     h_psi:calbec :      0.08s CPU      0.12s WALL (    2029 calls)
     vloc_psi     :      1.08s CPU      1.07s WALL (    2029 calls)
     add_vuspsi   :      0.13s CPU      0.13s WALL (    2029 calls)

     General routines
     calbec       :      0.14s CPU      0.18s WALL (    2974 calls)
     fft          :      0.00s CPU      0.00s WALL (     147 calls)
     ffts         :      0.00s CPU      0.00s WALL (      10 calls)
     fftw         :      1.04s CPU      1.06s WALL (   40580 calls)

     Parallel routines

     PWSCF        :     6.13s CPU         6.31s WALL


   This run was terminated on:   0:45:13  30Oct2019            

=------------------------------------------------------------------------------=
   JOB DONE.
=------------------------------------------------------------------------------=
