
     Program PWSCF v.6.3 starts on 30Oct2019 at  0:44:31 

     This program is part of the open-source Quantum ESPRESSO suite
     for quantum simulation of materials; please cite
         "P. Giannozzi et al., J. Phys.:Condens. Matter 21 395502 (2009);
         "P. Giannozzi et al., J. Phys.:Condens. Matter 29 465901 (2017);
          URL http://www.quantum-espresso.org", 
     in publications or presentations arising from this work. More details at
     http://www.quantum-espresso.org/quote

     Parallel version (MPI), running on     1 processors

     MPI processes distributed on     1 nodes
     Reading input from /cloud/Code/python/py_pwscf_converge/src/example2/wd/runpwscf/file_10271.in
Warning: card &IONS ignored
Warning: card ION_DYNAMICS = 'BFGS', ignored
Warning: card / ignored
Warning: card &CELL ignored
Warning: card CELL_DYNAMICS = 'BFGS', ignored
Warning: card CELL_FACTOR = 2.0, ignored
Warning: card PRESS = 0.0, ignored
Warning: card / ignored

     Current dimensions of program PWSCF are:
     Max number of different atomic species (ntypx) = 10
     Max number of k-points (npk) =  40000
     Max angular momentum in pseudopotentials (lmaxx) =  3
               file Al.pbe-nl-kjpaw_psl.1.0.0.UPF: wavefunction(s)  3S 3P renormalized

     Subspace diagonalization in iterative solution of the eigenvalue problem:
     a serial algorithm will be used


     G-vector sticks info
     --------------------
     sticks:   dense  smooth     PW     G-vecs:    dense   smooth      PW
     Sum         121     121     81                  949      949     515



     bravais-lattice index     =            0
     lattice parameter (alat)  =       4.0400  a.u.
     unit-cell volume          =      65.9393 (a.u.)^3
     number of atoms/cell      =            4
     number of atomic types    =            1
     number of electrons       =        12.00
     number of Kohn-Sham states=           10
     kinetic-energy cutoff     =      42.0000  Ry
     charge density cutoff     =      90.0000  Ry
     convergence threshold     =      1.0E-06
     mixing beta               =       0.1000
     number of iterations used =           10  TF        mixing
     Exchange-correlation      = SLA PW PBX PBC ( 1  4  3  4 0 0)

     celldm(1)=   4.040000  celldm(2)=   0.000000  celldm(3)=   0.000000
     celldm(4)=   0.000000  celldm(5)=   0.000000  celldm(6)=   0.000000

     crystal axes: (cart. coord. in units of alat)
               a(1) = (   1.000000   0.000000   0.000000 )  
               a(2) = (   0.000000   1.000000   0.000000 )  
               a(3) = (   0.000000   0.000000   1.000000 )  

     reciprocal axes: (cart. coord. in units 2 pi/alat)
               b(1) = (  1.000000  0.000000  0.000000 )  
               b(2) = (  0.000000  1.000000  0.000000 )  
               b(3) = (  0.000000  0.000000  1.000000 )  


     PseudoPot. # 1 for Al read from file:
     /opt/pp/Al.pbe-nl-kjpaw_psl.1.0.0.UPF
     MD5 check sum: 1b67f78b73fe58c7924490f171ce8a1e
     Pseudo is Projector augmented-wave + core cor, Zval =  3.0
     Generated using "atomic" code by A. Dal Corso v.6.3
     Shape of augmentation charge: PSQ
     Using radial grid of 1135 points,  4 beta functions with: 
                l(1) =   0
                l(2) =   0
                l(3) =   1
                l(4) =   1
     Q(r) pseudized with 0 coefficients 


     atomic species   valence    mass     pseudopotential
        Al             3.00    26.98200     Al( 1.00)

     No symmetry found



   Cartesian axes

     site n.     atom                  positions (alat units)
         1           Al  tau(   1) = (  -0.0001235   0.0000359   0.0002572  )
         2           Al  tau(   2) = (   0.5003009   0.4992819   0.0002658  )
         3           Al  tau(   3) = (   0.4996490   0.0001153   0.5011170  )
         4           Al  tau(   4) = (  -0.0000756   0.5008267   0.5006943  )

     number of k points=    63  Marzari-Vanderbilt smearing, width (Ry)=  0.0080
                       cart. coord. in units 2pi/alat
        k(    1) = (   0.1000000   0.1000000   0.1000000), wk =   0.0320000
        k(    2) = (   0.1000000   0.1000000   0.3000000), wk =   0.0320000
        k(    3) = (   0.1000000   0.1000000  -0.5000000), wk =   0.0320000
        k(    4) = (   0.1000000   0.3000000   0.3000000), wk =   0.0320000
        k(    5) = (   0.1000000   0.3000000  -0.5000000), wk =   0.0320000
        k(    6) = (   0.1000000  -0.5000000  -0.5000000), wk =   0.0320000
        k(    7) = (   0.3000000   0.3000000   0.3000000), wk =   0.0320000
        k(    8) = (   0.3000000   0.3000000  -0.5000000), wk =   0.0320000
        k(    9) = (   0.3000000  -0.5000000  -0.5000000), wk =   0.0320000
        k(   10) = (  -0.5000000  -0.5000000  -0.5000000), wk =   0.0160000
        k(   11) = (  -0.1000000  -0.1000000   0.1000000), wk =   0.0320000
        k(   12) = (  -0.1000000   0.1000000  -0.1000000), wk =   0.0320000
        k(   13) = (   0.1000000  -0.1000000  -0.1000000), wk =   0.0320000
        k(   14) = (  -0.1000000  -0.1000000   0.3000000), wk =   0.0320000
        k(   15) = (  -0.1000000   0.1000000  -0.3000000), wk =   0.0320000
        k(   16) = (   0.1000000  -0.1000000  -0.3000000), wk =   0.0320000
        k(   17) = (   0.3000000  -0.1000000   0.1000000), wk =   0.0320000
        k(   18) = (  -0.3000000  -0.1000000  -0.1000000), wk =   0.0320000
        k(   19) = (   0.3000000   0.1000000  -0.1000000), wk =   0.0320000
        k(   20) = (  -0.3000000   0.1000000   0.1000000), wk =   0.0320000
        k(   21) = (  -0.1000000   0.3000000   0.1000000), wk =   0.0320000
        k(   22) = (  -0.1000000  -0.3000000  -0.1000000), wk =   0.0320000
        k(   23) = (   0.1000000   0.3000000  -0.1000000), wk =   0.0320000
        k(   24) = (   0.1000000  -0.3000000   0.1000000), wk =   0.0320000
        k(   25) = (  -0.1000000   0.1000000   0.5000000), wk =   0.0320000
        k(   26) = (  -0.5000000  -0.1000000   0.1000000), wk =   0.0320000
        k(   27) = (   0.5000000  -0.1000000  -0.1000000), wk =   0.0320000
        k(   28) = (  -0.1000000  -0.5000000   0.1000000), wk =   0.0320000
        k(   29) = (  -0.1000000   0.5000000  -0.1000000), wk =   0.0320000
        k(   30) = (  -0.1000000  -0.3000000   0.3000000), wk =   0.0320000
        k(   31) = (  -0.1000000   0.3000000  -0.3000000), wk =   0.0320000
        k(   32) = (   0.1000000  -0.3000000  -0.3000000), wk =   0.0320000
        k(   33) = (   0.3000000   0.1000000  -0.3000000), wk =   0.0320000
        k(   34) = (  -0.3000000  -0.1000000  -0.3000000), wk =   0.0320000
        k(   35) = (   0.3000000  -0.1000000   0.3000000), wk =   0.0320000
        k(   36) = (  -0.3000000   0.1000000   0.3000000), wk =   0.0320000
        k(   37) = (   0.3000000  -0.3000000   0.1000000), wk =   0.0320000
        k(   38) = (  -0.3000000  -0.3000000  -0.1000000), wk =   0.0320000
        k(   39) = (   0.3000000   0.3000000  -0.1000000), wk =   0.0320000
        k(   40) = (  -0.3000000   0.3000000   0.1000000), wk =   0.0320000
        k(   41) = (  -0.1000000   0.3000000   0.5000000), wk =   0.0320000
        k(   42) = (   0.3000000   0.1000000   0.5000000), wk =   0.0320000
        k(   43) = (   0.3000000  -0.1000000  -0.5000000), wk =   0.0320000
        k(   44) = (  -0.5000000  -0.3000000   0.1000000), wk =   0.0320000
        k(   45) = (   0.5000000  -0.3000000  -0.1000000), wk =   0.0320000
        k(   46) = (  -0.1000000  -0.5000000   0.3000000), wk =   0.0320000
        k(   47) = (  -0.1000000   0.5000000  -0.3000000), wk =   0.0320000
        k(   48) = (   0.3000000  -0.5000000   0.1000000), wk =   0.0320000
        k(   49) = (   0.3000000   0.5000000  -0.1000000), wk =   0.0320000
        k(   50) = (  -0.5000000   0.1000000   0.3000000), wk =   0.0320000
        k(   51) = (   0.5000000  -0.1000000   0.3000000), wk =   0.0320000
        k(   52) = (  -0.5000000   0.1000000   0.5000000), wk =   0.0320000
        k(   53) = (  -0.5000000   0.5000000   0.1000000), wk =   0.0320000
        k(   54) = (  -0.3000000  -0.3000000   0.3000000), wk =   0.0320000
        k(   55) = (  -0.3000000   0.3000000  -0.3000000), wk =   0.0320000
        k(   56) = (   0.3000000  -0.3000000  -0.3000000), wk =   0.0320000
        k(   57) = (  -0.3000000   0.3000000   0.5000000), wk =   0.0320000
        k(   58) = (  -0.5000000  -0.3000000   0.3000000), wk =   0.0320000
        k(   59) = (   0.5000000  -0.3000000  -0.3000000), wk =   0.0320000
        k(   60) = (  -0.3000000  -0.5000000   0.3000000), wk =   0.0320000
        k(   61) = (  -0.3000000   0.5000000  -0.3000000), wk =   0.0320000
        k(   62) = (  -0.5000000   0.3000000   0.5000000), wk =   0.0320000
        k(   63) = (  -0.5000000   0.5000000   0.3000000), wk =   0.0320000

     Dense  grid:      949 G-vectors     FFT dimensions: (  15,  15,  15)

     Estimated max dynamical RAM per process >       4.71 MB

     Initial potential from superposition of free atoms

     starting charge   11.99084, renormalised to   12.00000
     Starting wfcs are   16 randomized atomic wfcs
     Checking if some PAW data can be deallocated... 

     total cpu time spent up to now is        1.0 secs

     Self-consistent Calculation

     iteration #  1     ecut=    42.00 Ry     beta= 0.10
     Davidson diagonalization with overlap
     ethr =  1.00E-02,  avg # of iterations =  4.7

     total cpu time spent up to now is        1.7 secs

     total energy              =    -141.66713459 Ry
     Harris-Foulkes estimate   =    -141.82178159 Ry
     estimated scf accuracy    <       0.18354010 Ry

     iteration #  2     ecut=    42.00 Ry     beta= 0.10
     Davidson diagonalization with overlap
     ethr =  1.53E-03,  avg # of iterations =  1.1

     total cpu time spent up to now is        2.1 secs

     total energy              =    -141.17610216 Ry
     Harris-Foulkes estimate   =    -141.67063784 Ry
     estimated scf accuracy    <       0.15333702 Ry

     iteration #  3     ecut=    42.00 Ry     beta= 0.10
     Davidson diagonalization with overlap
     ethr =  1.28E-03,  avg # of iterations =  2.0

     total cpu time spent up to now is        2.6 secs

     total energy              =    -141.24357837 Ry
     Harris-Foulkes estimate   =    -141.24597834 Ry
     estimated scf accuracy    <       0.01535620 Ry

     iteration #  4     ecut=    42.00 Ry     beta= 0.10
     Davidson diagonalization with overlap
     ethr =  1.28E-04,  avg # of iterations =  1.2

     total cpu time spent up to now is        3.1 secs

     total energy              =    -141.24794845 Ry
     Harris-Foulkes estimate   =    -141.24402743 Ry
     estimated scf accuracy    <       0.01180225 Ry

     iteration #  5     ecut=    42.00 Ry     beta= 0.10
     Davidson diagonalization with overlap
     ethr =  9.84E-05,  avg # of iterations =  2.0

     total cpu time spent up to now is        3.5 secs

     total energy              =    -141.25303969 Ry
     Harris-Foulkes estimate   =    -141.24958186 Ry
     estimated scf accuracy    <       0.00051662 Ry

     iteration #  6     ecut=    42.00 Ry     beta= 0.10
     Davidson diagonalization with overlap
     ethr =  4.31E-06,  avg # of iterations =  3.0

     total cpu time spent up to now is        4.1 secs

     total energy              =    -141.25015342 Ry
     Harris-Foulkes estimate   =    -141.25343906 Ry
     estimated scf accuracy    <       0.00008245 Ry

     iteration #  7     ecut=    42.00 Ry     beta= 0.10
     Davidson diagonalization with overlap
     ethr =  6.87E-07,  avg # of iterations =  3.0

     total cpu time spent up to now is        4.6 secs

     total energy              =    -141.24975857 Ry
     Harris-Foulkes estimate   =    -141.25030425 Ry
     estimated scf accuracy    <       0.00005869 Ry

     iteration #  8     ecut=    42.00 Ry     beta= 0.10
     Davidson diagonalization with overlap
     ethr =  4.89E-07,  avg # of iterations =  1.3

     total cpu time spent up to now is        5.1 secs

     total energy              =    -141.24937344 Ry
     Harris-Foulkes estimate   =    -141.24977400 Ry
     estimated scf accuracy    <       0.00000491 Ry

     iteration #  9     ecut=    42.00 Ry     beta= 0.10
     Davidson diagonalization with overlap
     ethr =  4.09E-08,  avg # of iterations =  3.6

     total cpu time spent up to now is        5.7 secs

     total energy              =    -141.24942969 Ry
     Harris-Foulkes estimate   =    -141.24941998 Ry
     estimated scf accuracy    <       0.00000471 Ry

     iteration # 10     ecut=    42.00 Ry     beta= 0.10
     Davidson diagonalization with overlap
     ethr =  3.93E-08,  avg # of iterations =  2.0

     total cpu time spent up to now is        6.2 secs

     End of self-consistent calculation

          k = 0.1000 0.1000 0.1000 (   296 PWs)   bands (ev):

    30.4134  41.2176  41.2321  41.2489  52.3539  52.3706  52.3871  54.7265
    54.7354  54.7445

          k = 0.1000 0.1000 0.3000 (   304 PWs)   bands (ev):

    32.8158  39.8290  43.1393  43.1594  52.2222  52.2402  54.4557  54.4669
    54.6206  58.7280

          k = 0.1000 0.1000-0.5000 (   306 PWs)   bands (ev):

    36.5155  36.5569  44.5145  44.5147  52.1714  52.1716  54.2421  54.2422
    59.1431  59.2061

          k = 0.1000 0.3000 0.3000 (   297 PWs)   bands (ev):

    34.9747  41.6839  41.7216  44.5236  50.9263  53.2502  53.2989  55.4990
    58.4268  58.4290

          k = 0.1000 0.3000-0.5000 (   304 PWs)   bands (ev):

    38.4137  38.4566  44.0430  44.0664  51.6362  51.6427  56.4121  56.4427
    57.0015  57.0039

          k = 0.1000-0.5000-0.5000 (   308 PWs)   bands (ev):

    41.3945  41.4028  41.4431  41.4513  53.6192  53.6310  53.6598  53.6718
    61.3288  61.3350

          k = 0.3000 0.3000 0.3000 (   305 PWs)   bands (ev):

    36.8482  43.3833  43.4173  43.4525  49.7730  49.8114  49.8498  56.2884
    61.5660  61.5704

          k = 0.3000 0.3000-0.5000 (   304 PWs)   bands (ev):

    40.0222  40.0667  45.3001  45.3009  47.4963  47.4974  52.3339  52.3346
    63.0312  63.0313

          k = 0.3000-0.5000-0.5000 (   292 PWs)   bands (ev):

    42.8073  42.8171  42.8603  42.8701  48.8913  48.9026  48.9356  48.9471
    69.0184  69.0259

          k =-0.5000-0.5000-0.5000 (   304 PWs)   bands (ev):

    44.9412  44.9427  44.9447  44.9449  45.7650  45.7657  45.7679  45.7693
    75.1902  75.1915

          k =-0.1000-0.1000 0.1000 (   296 PWs)   bands (ev):

    30.4134  41.2207  41.2325  41.2454  52.3574  52.3705  52.3837  54.7284
    54.7354  54.7426

          k =-0.1000 0.1000-0.1000 (   296 PWs)   bands (ev):

    30.4134  41.2234  41.2333  41.2417  52.3608  52.3705  52.3802  54.7303
    54.7354  54.7408

          k = 0.1000-0.1000-0.1000 (   296 PWs)   bands (ev):

    30.4134  41.2220  41.2328  41.2438  52.3590  52.3706  52.3820  54.7293
    54.7354  54.7418

          k =-0.1000-0.1000 0.3000 (   304 PWs)   bands (ev):

    32.8158  39.8290  43.1393  43.1593  52.2223  52.2403  54.4557  54.4670
    54.6204  58.7280

          k =-0.1000 0.1000-0.3000 (   304 PWs)   bands (ev):

    32.8158  39.8290  43.1447  43.1539  52.2271  52.2354  54.4587  54.4639
    54.6205  58.7280

          k = 0.1000-0.1000-0.3000 (   304 PWs)   bands (ev):

    32.8158  39.8290  43.1448  43.1540  52.2271  52.2353  54.4587  54.4639
    54.6207  58.7280

          k = 0.3000-0.1000 0.1000 (   304 PWs)   bands (ev):

    32.8158  39.8289  43.1447  43.1540  52.2269  52.2353  54.4588  54.4640
    54.6206  58.7281

          k =-0.3000-0.1000-0.1000 (   304 PWs)   bands (ev):

    32.8158  39.8289  43.1408  43.1579  52.2236  52.2389  54.4562  54.4657
    54.6214  58.7280

          k = 0.3000 0.1000-0.1000 (   304 PWs)   bands (ev):

    32.8158  39.8289  43.1447  43.1540  52.2269  52.2352  54.4589  54.4641
    54.6206  58.7281

          k =-0.3000 0.1000 0.1000 (   304 PWs)   bands (ev):

    32.8158  39.8289  43.1408  43.1579  52.2237  52.2390  54.4563  54.4658
    54.6209  58.7281

          k =-0.1000 0.3000 0.1000 (   304 PWs)   bands (ev):

    32.8158  39.8288  43.1482  43.1508  52.2301  52.2324  54.4605  54.4620
    54.6205  58.7280

          k =-0.1000-0.3000-0.1000 (   304 PWs)   bands (ev):

    32.8158  39.8288  43.1445  43.1546  52.2267  52.2357  54.4585  54.4641
    54.6206  58.7280

          k = 0.1000 0.3000-0.1000 (   304 PWs)   bands (ev):

    32.8158  39.8288  43.1482  43.1508  52.2301  52.2324  54.4602  54.4618
    54.6210  58.7280

          k = 0.1000-0.3000 0.1000 (   304 PWs)   bands (ev):

    32.8158  39.8288  43.1445  43.1545  52.2268  52.2358  54.4584  54.4640
    54.6205  58.7280

          k =-0.1000 0.1000 0.5000 (   306 PWs)   bands (ev):

    36.5155  36.5569  44.5145  44.5147  52.1714  52.1714  54.2422  54.2422
    59.1431  59.2061

          k =-0.5000-0.1000 0.1000 (   306 PWs)   bands (ev):

    36.5336  36.5387  44.5145  44.5148  52.1711  52.1714  54.2423  54.2425
    59.1710  59.1784

          k = 0.5000-0.1000-0.1000 (   306 PWs)   bands (ev):

    36.5336  36.5387  44.5145  44.5148  52.1715  52.1717  54.2418  54.2421
    59.1711  59.1785

          k =-0.1000-0.5000 0.1000 (   306 PWs)   bands (ev):

    36.5355  36.5368  44.5148  44.5149  52.1714  52.1715  54.2420  54.2422
    59.1736  59.1757

          k =-0.1000 0.5000-0.1000 (   306 PWs)   bands (ev):

    36.5355  36.5368  44.5148  44.5149  52.1713  52.1715  54.2421  54.2422
    59.1735  59.1756

          k =-0.1000-0.3000 0.3000 (   297 PWs)   bands (ev):

    34.9746  41.6926  41.7130  44.5234  50.9266  53.2612  53.2877  55.4990
    58.4272  58.4284

          k =-0.1000 0.3000-0.3000 (   297 PWs)   bands (ev):

    34.9746  41.6926  41.7130  44.5234  50.9266  53.2611  53.2877  55.4990
    58.4272  58.4284

          k = 0.1000-0.3000-0.3000 (   297 PWs)   bands (ev):

    34.9746  41.6840  41.7216  44.5235  50.9265  53.2502  53.2989  55.4990
    58.4266  58.4288

          k = 0.3000 0.1000-0.3000 (   297 PWs)   bands (ev):

    34.9746  41.6999  41.7056  44.5234  50.9262  53.2709  53.2783  55.4991
    58.4276  58.4282

          k =-0.3000-0.1000-0.3000 (   297 PWs)   bands (ev):

    34.9746  41.6917  41.7138  44.5233  50.9265  53.2604  53.2890  55.4991
    58.4270  58.4283

          k = 0.3000-0.1000 0.3000 (   297 PWs)   bands (ev):

    34.9746  41.6918  41.7138  44.5233  50.9264  53.2603  53.2888  55.4992
    58.4271  58.4284

          k =-0.3000 0.1000 0.3000 (   297 PWs)   bands (ev):

    34.9746  41.6999  41.7056  44.5234  50.9264  53.2710  53.2784  55.4990
    58.4273  58.4279

          k = 0.3000-0.3000 0.1000 (   297 PWs)   bands (ev):

    34.9747  41.6927  41.7128  44.5235  50.9262  53.2613  53.2876  55.4991
    58.4273  58.4286

          k =-0.3000-0.3000-0.1000 (   297 PWs)   bands (ev):

    34.9747  41.6808  41.7248  44.5234  50.9265  53.2459  53.3032  55.4989
    58.4265  58.4292

          k = 0.3000 0.3000-0.1000 (   297 PWs)   bands (ev):

    34.9747  41.6808  41.7248  44.5234  50.9264  53.2458  53.3031  55.4992
    58.4265  58.4292

          k =-0.3000 0.3000 0.1000 (   297 PWs)   bands (ev):

    34.9747  41.6927  41.7128  44.5235  50.9265  53.2614  53.2877  55.4986
    58.4272  58.4285

          k =-0.1000 0.3000 0.5000 (   304 PWs)   bands (ev):

    38.4137  38.4566  44.0430  44.0665  51.6362  51.6427  56.4118  56.4424
    57.0018  57.0043

          k = 0.3000 0.1000 0.5000 (   304 PWs)   bands (ev):

    38.4137  38.4566  44.0429  44.0664  51.6363  51.6428  56.4123  56.4429
    57.0013  57.0037

          k = 0.3000-0.1000-0.5000 (   304 PWs)   bands (ev):

    38.4137  38.4566  44.0430  44.0664  51.6363  51.6428  56.4122  56.4428
    57.0014  57.0039

          k =-0.5000-0.3000 0.1000 (   304 PWs)   bands (ev):

    38.4325  38.4377  44.0534  44.0562  51.6388  51.6396  56.4261  56.4297
    57.0022  57.0026

          k = 0.5000-0.3000-0.1000 (   304 PWs)   bands (ev):

    38.4325  38.4377  44.0533  44.0561  51.6392  51.6400  56.4234  56.4274
    57.0036  57.0058

          k =-0.1000-0.5000 0.3000 (   304 PWs)   bands (ev):

    38.4344  38.4357  44.0545  44.0553  51.6393  51.6396  56.4261  56.4277
    57.0025  57.0039

          k =-0.1000 0.5000-0.3000 (   304 PWs)   bands (ev):

    38.4344  38.4358  44.0545  44.0553  51.6393  51.6396  56.4264  56.4278
    57.0023  57.0037

          k = 0.3000-0.5000 0.1000 (   304 PWs)   bands (ev):

    38.4344  38.4358  44.0545  44.0552  51.6392  51.6396  56.4260  56.4280
    57.0023  57.0040

          k = 0.3000 0.5000-0.1000 (   304 PWs)   bands (ev):

    38.4344  38.4358  44.0545  44.0552  51.6393  51.6396  56.4244  56.4279
    57.0023  57.0057

          k =-0.5000 0.1000 0.3000 (   304 PWs)   bands (ev):

    38.4325  38.4377  44.0533  44.0561  51.6393  51.6400  56.4251  56.4288
    57.0025  57.0038

          k = 0.5000-0.1000 0.3000 (   304 PWs)   bands (ev):

    38.4325  38.4377  44.0534  44.0562  51.6390  51.6398  56.4260  56.4296
    57.0023  57.0027

          k =-0.5000 0.1000 0.5000 (   308 PWs)   bands (ev):

    41.3971  41.4064  41.4395  41.4485  53.6300  53.6415  53.6497  53.6611
    61.3329  61.3385

          k =-0.5000 0.5000 0.1000 (   308 PWs)   bands (ev):

    41.4020  41.4133  41.4325  41.4439  53.6145  53.6313  53.6596  53.6763
    61.3284  61.3364

          k =-0.3000-0.3000 0.3000 (   305 PWs)   bands (ev):

    36.8482  43.3905  43.4175  43.4451  49.7810  49.8113  49.8417  56.2885
    61.5669  61.5703

          k =-0.3000 0.3000-0.3000 (   305 PWs)   bands (ev):

    36.8481  43.3973  43.4180  43.4377  49.7889  49.8112  49.8338  56.2886
    61.5676  61.5703

          k = 0.3000-0.3000-0.3000 (   305 PWs)   bands (ev):

    36.8481  43.3937  43.4176  43.4417  49.7848  49.8114  49.8382  56.2882
    61.5673  61.5704

          k =-0.3000 0.3000 0.5000 (   304 PWs)   bands (ev):

    40.0222  40.0667  45.3006  45.3010  47.4963  47.4968  52.3339  52.3346
    63.0313  63.0314

          k =-0.5000-0.3000 0.3000 (   304 PWs)   bands (ev):

    40.0417  40.0471  45.3008  45.3011  47.4962  47.4965  52.3342  52.3344
    63.0312  63.0314

          k = 0.5000-0.3000-0.3000 (   304 PWs)   bands (ev):

    40.0417  40.0471  45.3004  45.3009  47.4967  47.4968  52.3342  52.3343
    63.0311  63.0315

          k =-0.3000-0.5000 0.3000 (   304 PWs)   bands (ev):

    40.0436  40.0451  45.3010  45.3011  47.4963  47.4965  52.3341  52.3343
    63.0312  63.0314

          k =-0.3000 0.5000-0.3000 (   304 PWs)   bands (ev):

    40.0436  40.0451  45.3009  45.3010  47.4963  47.4965  52.3341  52.3344
    63.0312  63.0315

          k =-0.5000 0.3000 0.5000 (   292 PWs)   bands (ev):

    42.8111  42.8217  42.8557  42.8661  48.8993  48.9107  48.9278  48.9389
    69.0220  69.0295

          k =-0.5000 0.5000 0.3000 (   292 PWs)   bands (ev):

    42.8136  42.8272  42.8501  42.8637  48.8895  48.9056  48.9328  48.9487
    69.0220  69.0347

     the Fermi energy is    52.3698 ev

!    total energy              =    -141.24941823 Ry
     Harris-Foulkes estimate   =    -141.24943115 Ry
     estimated scf accuracy    <       0.00000085 Ry

     total all-electron energy =     -1925.820540 Ry

     The total energy is the sum of the following terms:

     one-electron contribution =      58.70734817 Ry
     hartree contribution      =       0.21787888 Ry
     xc contribution           =     -17.29373424 Ry
     ewald contribution        =     -40.85514773 Ry
     one-center paw contrib.   =    -142.02623837 Ry
     smearing contrib. (-TS)   =       0.00047507 Ry

     convergence has been achieved in  10 iterations

     Forces acting on atoms (cartesian axes, Ry/au):

     atom    1 type  1   force =     0.00203735   -0.00042881    0.01646969
     atom    2 type  1   force =    -0.00343402    0.00400841    0.01643441
     atom    3 type  1   force =    -0.00044697   -0.00064176   -0.01746208
     atom    4 type  1   force =     0.00184365   -0.00293784   -0.01544202

     Total force =     0.033609     Total SCF correction =     0.000027


     Computing stress (Cartesian axis) and pressure

          total   stress  (Ry/bohr**3)                   (kbar)     P=60047.65
   0.40820414  -0.00000036  -0.00000001      60048.89     -0.05     -0.00
  -0.00000036   0.40818614  -0.00000067         -0.05  60046.24     -0.10
  -0.00000001  -0.00000067   0.40819675         -0.00     -0.10  60047.80


     Writing output data file fe_scf_fcc_2.save/

     init_run     :      0.56s CPU      0.57s WALL (       1 calls)
     electrons    :      4.98s CPU      5.15s WALL (       1 calls)
     forces       :      0.04s CPU      0.04s WALL (       1 calls)
     stress       :      0.13s CPU      0.13s WALL (       1 calls)

     Called by init_run:
     wfcinit      :      0.14s CPU      0.14s WALL (       1 calls)
     potinit      :      0.24s CPU      0.25s WALL (       1 calls)
     hinit0       :      0.17s CPU      0.17s WALL (       1 calls)

     Called by electrons:
     c_bands      :      2.33s CPU      2.36s WALL (      10 calls)
     sum_band     :      0.31s CPU      0.33s WALL (      10 calls)
     v_of_rho     :      0.02s CPU      0.02s WALL (      11 calls)
     newd         :      0.01s CPU      0.02s WALL (      11 calls)
     PAW_pot      :      2.54s CPU      2.67s WALL (      11 calls)
     mix_rho      :      0.00s CPU      0.00s WALL (      10 calls)

     Called by c_bands:
     init_us_2    :      0.14s CPU      0.14s WALL (    1449 calls)
     cegterg      :      2.13s CPU      2.15s WALL (     630 calls)

     Called by sum_band:
     sum_band:bec :      0.00s CPU      0.00s WALL (     630 calls)
     addusdens    :      0.00s CPU      0.01s WALL (      10 calls)

     Called by *egterg:
     h_psi        :      1.32s CPU      1.38s WALL (    2201 calls)
     s_psi        :      0.17s CPU      0.13s WALL (    2201 calls)
     g_psi        :      0.03s CPU      0.02s WALL (    1508 calls)
     cdiaghg      :      0.41s CPU      0.36s WALL (    2138 calls)

     Called by h_psi:
     h_psi:pot    :      1.31s CPU      1.37s WALL (    2201 calls)
     h_psi:calbec :      0.10s CPU      0.13s WALL (    2201 calls)
     vloc_psi     :      1.09s CPU      1.10s WALL (    2201 calls)
     add_vuspsi   :      0.11s CPU      0.14s WALL (    2201 calls)

     General routines
     calbec       :      0.18s CPU      0.19s WALL (    3146 calls)
     fft          :      0.01s CPU      0.00s WALL (     147 calls)
     ffts         :      0.00s CPU      0.00s WALL (      10 calls)
     fftw         :      1.04s CPU      1.08s WALL (   41508 calls)

     Parallel routines

     PWSCF        :     6.14s CPU         6.35s WALL


   This run was terminated on:   0:44:37  30Oct2019            

=------------------------------------------------------------------------------=
   JOB DONE.
=------------------------------------------------------------------------------=
