
     Program PWSCF v.6.3 starts on 30Oct2019 at  0:45:19 

     This program is part of the open-source Quantum ESPRESSO suite
     for quantum simulation of materials; please cite
         "P. Giannozzi et al., J. Phys.:Condens. Matter 21 395502 (2009);
         "P. Giannozzi et al., J. Phys.:Condens. Matter 29 465901 (2017);
          URL http://www.quantum-espresso.org", 
     in publications or presentations arising from this work. More details at
     http://www.quantum-espresso.org/quote

     Parallel version (MPI), running on     1 processors

     MPI processes distributed on     1 nodes
     Reading input from /cloud/Code/python/py_pwscf_converge/src/example2/wd/runpwscf/file_10277.in
Warning: card &IONS ignored
Warning: card ION_DYNAMICS = 'BFGS', ignored
Warning: card / ignored
Warning: card &CELL ignored
Warning: card CELL_DYNAMICS = 'BFGS', ignored
Warning: card CELL_FACTOR = 2.0, ignored
Warning: card PRESS = 0.0, ignored
Warning: card / ignored

     Current dimensions of program PWSCF are:
     Max number of different atomic species (ntypx) = 10
     Max number of k-points (npk) =  40000
     Max angular momentum in pseudopotentials (lmaxx) =  3
               file Al.pbe-nl-kjpaw_psl.1.0.0.UPF: wavefunction(s)  3S 3P renormalized

     Subspace diagonalization in iterative solution of the eigenvalue problem:
     a serial algorithm will be used


     G-vector sticks info
     --------------------
     sticks:   dense  smooth     PW     G-vecs:    dense   smooth      PW
     Sum         121     121     81                  949      949     515



     bravais-lattice index     =            0
     lattice parameter (alat)  =       4.0400  a.u.
     unit-cell volume          =      65.9393 (a.u.)^3
     number of atoms/cell      =            4
     number of atomic types    =            1
     number of electrons       =        12.00
     number of Kohn-Sham states=           10
     kinetic-energy cutoff     =      42.0000  Ry
     charge density cutoff     =      90.0000  Ry
     convergence threshold     =      1.0E-06
     mixing beta               =       0.1000
     number of iterations used =           10  TF        mixing
     Exchange-correlation      = SLA PW PBX PBC ( 1  4  3  4 0 0)

     celldm(1)=   4.040000  celldm(2)=   0.000000  celldm(3)=   0.000000
     celldm(4)=   0.000000  celldm(5)=   0.000000  celldm(6)=   0.000000

     crystal axes: (cart. coord. in units of alat)
               a(1) = (   1.000000   0.000000   0.000000 )  
               a(2) = (   0.000000   1.000000   0.000000 )  
               a(3) = (   0.000000   0.000000   1.000000 )  

     reciprocal axes: (cart. coord. in units 2 pi/alat)
               b(1) = (  1.000000  0.000000  0.000000 )  
               b(2) = (  0.000000  1.000000  0.000000 )  
               b(3) = (  0.000000  0.000000  1.000000 )  


     PseudoPot. # 1 for Al read from file:
     /opt/pp/Al.pbe-nl-kjpaw_psl.1.0.0.UPF
     MD5 check sum: 1b67f78b73fe58c7924490f171ce8a1e
     Pseudo is Projector augmented-wave + core cor, Zval =  3.0
     Generated using "atomic" code by A. Dal Corso v.6.3
     Shape of augmentation charge: PSQ
     Using radial grid of 1135 points,  4 beta functions with: 
                l(1) =   0
                l(2) =   0
                l(3) =   1
                l(4) =   1
     Q(r) pseudized with 0 coefficients 


     atomic species   valence    mass     pseudopotential
        Al             3.00    26.98200     Al( 1.00)

     No symmetry found



   Cartesian axes

     site n.     atom                  positions (alat units)
         1           Al  tau(   1) = (  -0.0001235   0.0000359   0.0002572  )
         2           Al  tau(   2) = (   0.5003009   0.4992819   0.0002658  )
         3           Al  tau(   3) = (   0.4996490   0.0001153   0.5011170  )
         4           Al  tau(   4) = (  -0.0000756   0.5008267   0.5006943  )

     number of k points=   172  Marzari-Vanderbilt smearing, width (Ry)=  0.0010

     Number of k-points >= 100: set verbosity='high' to print them.

     Dense  grid:      949 G-vectors     FFT dimensions: (  15,  15,  15)

     Estimated max dynamical RAM per process >       9.75 MB

     Initial potential from superposition of free atoms

     starting charge   11.99084, renormalised to   12.00000
     Starting wfcs are   16 randomized atomic wfcs
     Checking if some PAW data can be deallocated... 

     total cpu time spent up to now is        1.3 secs

     Self-consistent Calculation

     iteration #  1     ecut=    42.00 Ry     beta= 0.10
     Davidson diagonalization with overlap
     ethr =  1.00E-02,  avg # of iterations =  4.9

     total cpu time spent up to now is        2.7 secs

     total energy              =    -141.65785191 Ry
     Harris-Foulkes estimate   =    -141.81252950 Ry
     estimated scf accuracy    <       0.18318178 Ry

     iteration #  2     ecut=    42.00 Ry     beta= 0.10
     Davidson diagonalization with overlap
     ethr =  1.53E-03,  avg # of iterations =  1.1

     total cpu time spent up to now is        3.5 secs

     total energy              =    -141.17150662 Ry
     Harris-Foulkes estimate   =    -141.66138446 Ry
     estimated scf accuracy    <       0.15212860 Ry

     iteration #  3     ecut=    42.00 Ry     beta= 0.10
     Davidson diagonalization with overlap
     ethr =  1.27E-03,  avg # of iterations =  2.1

     total cpu time spent up to now is        4.4 secs

     total energy              =    -141.24813445 Ry
     Harris-Foulkes estimate   =    -141.24793194 Ry
     estimated scf accuracy    <       0.01567114 Ry

     iteration #  4     ecut=    42.00 Ry     beta= 0.10
     Davidson diagonalization with overlap
     ethr =  1.31E-04,  avg # of iterations =  1.2

     total cpu time spent up to now is        5.2 secs

     total energy              =    -141.25267282 Ry
     Harris-Foulkes estimate   =    -141.24844082 Ry
     estimated scf accuracy    <       0.01363127 Ry

     iteration #  5     ecut=    42.00 Ry     beta= 0.10
     Davidson diagonalization with overlap
     ethr =  1.14E-04,  avg # of iterations =  1.0

     total cpu time spent up to now is        6.0 secs

     total energy              =    -141.25162588 Ry
     Harris-Foulkes estimate   =    -141.25411382 Ry
     estimated scf accuracy    <       0.00015052 Ry

     iteration #  6     ecut=    42.00 Ry     beta= 0.10
     Davidson diagonalization with overlap
     ethr =  1.25E-06,  avg # of iterations =  3.7

     total cpu time spent up to now is        7.2 secs

     total energy              =    -141.25143552 Ry
     Harris-Foulkes estimate   =    -141.25173657 Ry
     estimated scf accuracy    <       0.00003582 Ry

     iteration #  7     ecut=    42.00 Ry     beta= 0.10
     Davidson diagonalization with overlap
     ethr =  2.99E-07,  avg # of iterations =  1.5

     total cpu time spent up to now is        8.0 secs

     total energy              =    -141.25050935 Ry
     Harris-Foulkes estimate   =    -141.25143816 Ry
     estimated scf accuracy    <       0.00001952 Ry

     iteration #  8     ecut=    42.00 Ry     beta= 0.10
     Davidson diagonalization with overlap
     ethr =  1.63E-07,  avg # of iterations =  3.1

     total cpu time spent up to now is        9.1 secs

     total energy              =    -141.25043291 Ry
     Harris-Foulkes estimate   =    -141.25054339 Ry
     estimated scf accuracy    <       0.00000366 Ry

     iteration #  9     ecut=    42.00 Ry     beta= 0.10
     Davidson diagonalization with overlap
     ethr =  3.05E-08,  avg # of iterations =  2.1

     total cpu time spent up to now is       10.0 secs

     total energy              =    -141.25027677 Ry
     Harris-Foulkes estimate   =    -141.25043511 Ry
     estimated scf accuracy    <       0.00000344 Ry

     iteration # 10     ecut=    42.00 Ry     beta= 0.10
     Davidson diagonalization with overlap
     ethr =  2.86E-08,  avg # of iterations =  3.4

     total cpu time spent up to now is       11.2 secs

     End of self-consistent calculation

     Number of k-points >= 100: set verbosity='high' to print the bands.

     the Fermi energy is    52.7713 ev

!    total energy              =    -141.25029029 Ry
     Harris-Foulkes estimate   =    -141.25029410 Ry
     estimated scf accuracy    <       0.00000053 Ry

     total all-electron energy =     -1925.821412 Ry

     The total energy is the sum of the following terms:

     one-electron contribution =      58.67021772 Ry
     hartree contribution      =       0.21598369 Ry
     xc contribution           =     -17.28795504 Ry
     ewald contribution        =     -40.85514773 Ry
     one-center paw contrib.   =    -141.99337547 Ry
     smearing contrib. (-TS)   =      -0.00001346 Ry

     convergence has been achieved in  10 iterations

     Forces acting on atoms (cartesian axes, Ry/au):

     atom    1 type  1   force =     0.00210289   -0.00029867    0.01645435
     atom    2 type  1   force =    -0.00445928    0.00648112    0.01638975
     atom    3 type  1   force =     0.00060234   -0.00077872   -0.01810078
     atom    4 type  1   force =     0.00175405   -0.00540373   -0.01474332

     Total force =     0.034410     Total SCF correction =     0.000024


     Computing stress (Cartesian axis) and pressure

          total   stress  (Ry/bohr**3)                   (kbar)     P=59727.34
   0.40602281   0.00000158   0.00000077      59728.01      0.23      0.11
   0.00000158   0.40601475  -0.00000048          0.23  59726.82     -0.07
   0.00000077  -0.00000048   0.40601720          0.11     -0.07  59727.18


     Writing output data file fe_scf_fcc_2.save/

     init_run     :      0.80s CPU      0.82s WALL (       1 calls)
     electrons    :      9.72s CPU      9.95s WALL (       1 calls)
     forces       :      0.10s CPU      0.10s WALL (       1 calls)
     stress       :      0.35s CPU      0.35s WALL (       1 calls)

     Called by init_run:
     wfcinit      :      0.39s CPU      0.39s WALL (       1 calls)
     potinit      :      0.23s CPU      0.25s WALL (       1 calls)
     hinit0       :      0.18s CPU      0.18s WALL (       1 calls)

     Called by electrons:
     c_bands      :      6.46s CPU      6.56s WALL (      10 calls)
     sum_band     :      0.86s CPU      0.89s WALL (      10 calls)
     v_of_rho     :      0.02s CPU      0.02s WALL (      11 calls)
     newd         :      0.01s CPU      0.02s WALL (      11 calls)
     PAW_pot      :      2.60s CPU      2.70s WALL (      11 calls)
     mix_rho      :      0.00s CPU      0.00s WALL (      10 calls)

     Called by c_bands:
     init_us_2    :      0.32s CPU      0.39s WALL (    3956 calls)
     cegterg      :      5.86s CPU      5.99s WALL (    1720 calls)

     Called by sum_band:
     sum_band:bec :      0.01s CPU      0.01s WALL (    1720 calls)
     addusdens    :      0.00s CPU      0.01s WALL (      10 calls)

     Called by *egterg:
     h_psi        :      3.76s CPU      3.85s WALL (    6049 calls)
     s_psi        :      0.36s CPU      0.36s WALL (    6049 calls)
     g_psi        :      0.08s CPU      0.07s WALL (    4157 calls)
     cdiaghg      :      0.99s CPU      1.02s WALL (    5877 calls)

     Called by h_psi:
     h_psi:pot    :      3.72s CPU      3.81s WALL (    6049 calls)
     h_psi:calbec :      0.32s CPU      0.35s WALL (    6049 calls)
     vloc_psi     :      3.04s CPU      3.07s WALL (    6049 calls)
     add_vuspsi   :      0.36s CPU      0.37s WALL (    6049 calls)

     General routines
     calbec       :      0.48s CPU      0.51s WALL (    8629 calls)
     fft          :      0.01s CPU      0.00s WALL (     147 calls)
     ffts         :      0.00s CPU      0.00s WALL (      10 calls)
     fftw         :      3.05s CPU      3.02s WALL (  114372 calls)

     Parallel routines

     PWSCF        :    11.44s CPU        11.73s WALL


   This run was terminated on:   0:45:31  30Oct2019            

=------------------------------------------------------------------------------=
   JOB DONE.
=------------------------------------------------------------------------------=
