
     Program PWSCF v.6.4.1 starts on 24Feb2020 at 16: 2:14 

     This program is part of the open-source Quantum ESPRESSO suite
     for quantum simulation of materials; please cite
         "P. Giannozzi et al., J. Phys.:Condens. Matter 21 395502 (2009);
         "P. Giannozzi et al., J. Phys.:Condens. Matter 29 465901 (2017);
          URL http://www.quantum-espresso.org", 
     in publications or presentations arising from this work. More details at
     http://www.quantum-espresso.org/quote

     Parallel version (MPI), running on     4 processors

     MPI processes distributed on     1 nodes
     R & G space division:  proc/nbgrp/npool/nimage =       4
     Reading input from /cloud/Code/python/py_pwscf_converge/src/example2/wd/runpwscf/file_10233.in
Warning: card &IONS ignored
Warning: card ION_DYNAMICS = 'BFGS', ignored
Warning: card / ignored
Warning: card &CELL ignored
Warning: card CELL_DYNAMICS = 'BFGS', ignored
Warning: card CELL_FACTOR = 2.0, ignored
Warning: card PRESS = 0.0, ignored
Warning: card / ignored

     Current dimensions of program PWSCF are:
     Max number of different atomic species (ntypx) = 10
     Max number of k-points (npk) =  40000
     Max angular momentum in pseudopotentials (lmaxx) =  3
               file Al.pbe-nl-kjpaw_psl.1.0.0.UPF: wavefunction(s)  3S 3P renormalized

     Subspace diagonalization in iterative solution of the eigenvalue problem:
     a serial algorithm will be used


     Parallelization info
     --------------------
     sticks:   dense  smooth     PW     G-vecs:    dense   smooth      PW
     Min         115     115     70                 1873     1873     893
     Max         117     117     72                 1875     1875     894
     Sum         465     465    285                 7497     7497    3575



     bravais-lattice index     =            0
     lattice parameter (alat)  =       7.6356  a.u.
     unit-cell volume          =     445.1737 (a.u.)^3
     number of atoms/cell      =            4
     number of atomic types    =            1
     number of electrons       =        12.00
     number of Kohn-Sham states=           10
     kinetic-energy cutoff     =      50.0000  Ry
     charge density cutoff     =     100.0000  Ry
     convergence threshold     =      1.0E-06
     mixing beta               =       0.1000
     number of iterations used =           10  TF        mixing
     Exchange-correlation      = SLA PW PBX PBC ( 1  4  3  4 0 0)

     celldm(1)=   7.635600  celldm(2)=   0.000000  celldm(3)=   0.000000
     celldm(4)=   0.000000  celldm(5)=   0.000000  celldm(6)=   0.000000

     crystal axes: (cart. coord. in units of alat)
               a(1) = (   1.000000   0.000000   0.000000 )  
               a(2) = (   0.000000   1.000000   0.000000 )  
               a(3) = (   0.000000   0.000000   1.000000 )  

     reciprocal axes: (cart. coord. in units 2 pi/alat)
               b(1) = (  1.000000  0.000000  0.000000 )  
               b(2) = (  0.000000  1.000000  0.000000 )  
               b(3) = (  0.000000  0.000000  1.000000 )  


     PseudoPot. # 1 for Al read from file:
     /opt/pp/Al.pbe-nl-kjpaw_psl.1.0.0.UPF
     MD5 check sum: 1b67f78b73fe58c7924490f171ce8a1e
     Pseudo is Projector augmented-wave + core cor, Zval =  3.0
     Generated using "atomic" code by A. Dal Corso v.6.3
     Shape of augmentation charge: PSQ
     Using radial grid of 1135 points,  4 beta functions with: 
                l(1) =   0
                l(2) =   0
                l(3) =   1
                l(4) =   1
     Q(r) pseudized with 0 coefficients 


     atomic species   valence    mass     pseudopotential
        Al             3.00    26.98200     Al( 1.00)

     No symmetry found



   Cartesian axes

     site n.     atom                  positions (alat units)
         1           Al  tau(   1) = (  -0.0000654   0.0000190   0.0001361  )
         2           Al  tau(   2) = (   0.5001592   0.4996200   0.0001406  )
         3           Al  tau(   3) = (   0.4998143   0.0000610   0.5005910  )
         4           Al  tau(   4) = (  -0.0000400   0.5004374   0.5003674  )

     number of k points=   172  Marzari-Vanderbilt smearing, width (Ry)=  0.0070

     Number of k-points >= 100: set verbosity='high' to print them.

     Dense  grid:     7497 G-vectors     FFT dimensions: (  25,  25,  25)

     Estimated max dynamical RAM per process >      20.86 MB

     Estimated total dynamical RAM >      83.43 MB

     Initial potential from superposition of free atoms

     starting charge   11.99084, renormalised to   12.00000
     Starting wfcs are   16 randomized atomic wfcs
     Checking if some PAW data can be deallocated... 

     total cpu time spent up to now is        1.5 secs

     Self-consistent Calculation

     iteration #  1     ecut=    50.00 Ry     beta= 0.10
     Davidson diagonalization with overlap
     ethr =  1.00E-02,  avg # of iterations =  3.4

     Threshold (ethr) on eigenvalues was too large:
     Diagonalizing with lowered threshold

     Davidson diagonalization with overlap
     ethr =  2.02E-04,  avg # of iterations =  3.1

     total cpu time spent up to now is        5.8 secs

     total energy              =    -158.01214875 Ry
     Harris-Foulkes estimate   =    -158.01297304 Ry
     estimated scf accuracy    <       0.02337020 Ry

     iteration #  2     ecut=    50.00 Ry     beta= 0.10
     Davidson diagonalization with overlap
     ethr =  1.95E-04,  avg # of iterations =  1.0

     total cpu time spent up to now is        7.3 secs

     total energy              =    -158.00602032 Ry
     Harris-Foulkes estimate   =    -158.01225426 Ry
     estimated scf accuracy    <       0.02016584 Ry

     iteration #  3     ecut=    50.00 Ry     beta= 0.10
     Davidson diagonalization with overlap
     ethr =  1.68E-04,  avg # of iterations =  1.0

     total cpu time spent up to now is        8.7 secs

     total energy              =    -158.00636801 Ry
     Harris-Foulkes estimate   =    -158.00640670 Ry
     estimated scf accuracy    <       0.00008466 Ry

     iteration #  4     ecut=    50.00 Ry     beta= 0.10
     Davidson diagonalization with overlap
     ethr =  7.05E-07,  avg # of iterations =  4.3

     total cpu time spent up to now is       11.5 secs

     total energy              =    -158.00643065 Ry
     Harris-Foulkes estimate   =    -158.00644379 Ry
     estimated scf accuracy    <       0.00005694 Ry

     iteration #  5     ecut=    50.00 Ry     beta= 0.10
     Davidson diagonalization with overlap
     ethr =  4.74E-07,  avg # of iterations =  1.0

     total cpu time spent up to now is       12.9 secs

     total energy              =    -158.00638818 Ry
     Harris-Foulkes estimate   =    -158.00643226 Ry
     estimated scf accuracy    <       0.00004344 Ry

     iteration #  6     ecut=    50.00 Ry     beta= 0.10
     Davidson diagonalization with overlap
     ethr =  3.62E-07,  avg # of iterations =  2.0

     total cpu time spent up to now is       14.8 secs

     total energy              =    -158.00639789 Ry
     Harris-Foulkes estimate   =    -158.00639792 Ry
     estimated scf accuracy    <       0.00000100 Ry

     iteration #  7     ecut=    50.00 Ry     beta= 0.10
     Davidson diagonalization with overlap
     ethr =  8.35E-09,  avg # of iterations =  1.5

     total cpu time spent up to now is       16.2 secs

     End of self-consistent calculation

     Number of k-points >= 100: set verbosity='high' to print the bands.

     the Fermi energy is     7.9255 ev

!    total energy              =    -158.00639771 Ry
     Harris-Foulkes estimate   =    -158.00639795 Ry
     estimated scf accuracy    <       0.00000092 Ry

     total all-electron energy =     -1942.577520 Ry

     The total energy is the sum of the following terms:

     one-electron contribution =      12.65442527 Ry
     hartree contribution      =       0.02402400 Ry
     xc contribution           =     -10.36181175 Ry
     ewald contribution        =     -21.61650270 Ry
     one-center paw contrib.   =    -138.70631201 Ry
     smearing contrib. (-TS)   =      -0.00022052 Ry

     convergence has been achieved in   7 iterations

     Forces acting on atoms (cartesian axes, Ry/au):

     atom    1 type  1   force =     0.00005909   -0.00004379    0.00015779
     atom    2 type  1   force =    -0.00017619    0.00020082    0.00016519
     atom    3 type  1   force =     0.00005675    0.00006774   -0.00027822
     atom    4 type  1   force =     0.00006035   -0.00022476   -0.00004477

     Total force =     0.000520     Total SCF correction =     0.000197
     SCF correction compared to forces is large: reduce conv_thr to get better values


     Computing stress (Cartesian axis) and pressure

          total   stress  (Ry/bohr**3)                   (kbar)     P=   -7.12
  -0.00004841  -0.00000000   0.00000000         -7.12     -0.00      0.00
  -0.00000000  -0.00004841   0.00000000         -0.00     -7.12      0.00
   0.00000000   0.00000000  -0.00004844          0.00      0.00     -7.13


     Writing output data file fe_scf_fcc_2.save/

     init_run     :      1.07s CPU      1.14s WALL (       1 calls)
     electrons    :     13.96s CPU     14.70s WALL (       1 calls)
     forces       :      0.35s CPU      0.36s WALL (       1 calls)
     stress       :      0.63s CPU      0.63s WALL (       1 calls)

     Called by init_run:
     wfcinit      :      0.97s CPU      1.03s WALL (       1 calls)
     potinit      :      0.04s CPU      0.04s WALL (       1 calls)
     hinit0       :      0.05s CPU      0.05s WALL (       1 calls)

     Called by electrons:
     c_bands      :     12.05s CPU     12.68s WALL (       8 calls)
     sum_band     :      1.62s CPU      1.72s WALL (       8 calls)
     v_of_rho     :      0.02s CPU      0.02s WALL (       8 calls)
     newd         :      0.01s CPU      0.01s WALL (       8 calls)
     PAW_pot      :      0.30s CPU      0.31s WALL (       8 calls)
     mix_rho      :      0.00s CPU      0.00s WALL (       8 calls)

     Called by c_bands:
     init_us_2    :      0.35s CPU      0.37s WALL (    3268 calls)
     cegterg      :     11.38s CPU     11.98s WALL (    1376 calls)

     Called by sum_band:
     sum_band:bec :      0.01s CPU      0.01s WALL (    1376 calls)
     addusdens    :      0.01s CPU      0.01s WALL (       8 calls)

     Called by *egterg:
     h_psi        :      7.55s CPU      7.98s WALL (    4518 calls)
     s_psi        :      0.85s CPU      0.90s WALL (    4518 calls)
     g_psi        :      0.05s CPU      0.05s WALL (    2970 calls)
     cdiaghg      :      0.60s CPU      0.63s WALL (    4174 calls)

     Called by h_psi:
     h_psi:pot    :      7.52s CPU      7.94s WALL (    4518 calls)
     h_psi:calbec :      1.45s CPU      1.53s WALL (    4518 calls)
     vloc_psi     :      5.21s CPU      5.50s WALL (    4518 calls)
     add_vuspsi   :      0.85s CPU      0.90s WALL (    4518 calls)

     General routines
     calbec       :      2.44s CPU      2.56s WALL (    6754 calls)
     fft          :      0.01s CPU      0.01s WALL (     114 calls)
     ffts         :      0.00s CPU      0.00s WALL (       8 calls)
     fftw         :      5.75s CPU      6.07s WALL (   88774 calls)

     Parallel routines
     fft_scatt_xy :      0.54s CPU      0.57s WALL (   88896 calls)
     fft_scatt_yz :      3.32s CPU      3.52s WALL (   88896 calls)

     PWSCF        :     16.47s CPU     17.36s WALL


   This run was terminated on:  16: 2:32  24Feb2020            

=------------------------------------------------------------------------------=
   JOB DONE.
=------------------------------------------------------------------------------=
