
     Program PWSCF v.6.4.1 starts on 24Feb2020 at 16: 1: 4 

     This program is part of the open-source Quantum ESPRESSO suite
     for quantum simulation of materials; please cite
         "P. Giannozzi et al., J. Phys.:Condens. Matter 21 395502 (2009);
         "P. Giannozzi et al., J. Phys.:Condens. Matter 29 465901 (2017);
          URL http://www.quantum-espresso.org", 
     in publications or presentations arising from this work. More details at
     http://www.quantum-espresso.org/quote

     Parallel version (MPI), running on     4 processors

     MPI processes distributed on     1 nodes
     R & G space division:  proc/nbgrp/npool/nimage =       4
     Reading input from /cloud/Code/python/py_pwscf_converge/src/example2/wd/runpwscf/file_10229.in
Warning: card &IONS ignored
Warning: card ION_DYNAMICS = 'BFGS', ignored
Warning: card / ignored
Warning: card &CELL ignored
Warning: card CELL_DYNAMICS = 'BFGS', ignored
Warning: card CELL_FACTOR = 2.0, ignored
Warning: card PRESS = 0.0, ignored
Warning: card / ignored

     Current dimensions of program PWSCF are:
     Max number of different atomic species (ntypx) = 10
     Max number of k-points (npk) =  40000
     Max angular momentum in pseudopotentials (lmaxx) =  3
               file Al.pbe-nl-kjpaw_psl.1.0.0.UPF: wavefunction(s)  3S 3P renormalized

     Subspace diagonalization in iterative solution of the eigenvalue problem:
     a serial algorithm will be used


     Parallelization info
     --------------------
     sticks:   dense  smooth     PW     G-vecs:    dense   smooth      PW
     Min         115     115     70                 1873     1873     893
     Max         117     117     72                 1875     1875     894
     Sum         465     465    285                 7497     7497    3575



     bravais-lattice index     =            0
     lattice parameter (alat)  =       7.6356  a.u.
     unit-cell volume          =     445.1737 (a.u.)^3
     number of atoms/cell      =            4
     number of atomic types    =            1
     number of electrons       =        12.00
     number of Kohn-Sham states=           10
     kinetic-energy cutoff     =      50.0000  Ry
     charge density cutoff     =     100.0000  Ry
     convergence threshold     =      1.0E-06
     mixing beta               =       0.1000
     number of iterations used =           10  TF        mixing
     Exchange-correlation      = SLA PW PBX PBC ( 1  4  3  4 0 0)

     celldm(1)=   7.635600  celldm(2)=   0.000000  celldm(3)=   0.000000
     celldm(4)=   0.000000  celldm(5)=   0.000000  celldm(6)=   0.000000

     crystal axes: (cart. coord. in units of alat)
               a(1) = (   1.000000   0.000000   0.000000 )  
               a(2) = (   0.000000   1.000000   0.000000 )  
               a(3) = (   0.000000   0.000000   1.000000 )  

     reciprocal axes: (cart. coord. in units 2 pi/alat)
               b(1) = (  1.000000  0.000000  0.000000 )  
               b(2) = (  0.000000  1.000000  0.000000 )  
               b(3) = (  0.000000  0.000000  1.000000 )  


     PseudoPot. # 1 for Al read from file:
     /opt/pp/Al.pbe-nl-kjpaw_psl.1.0.0.UPF
     MD5 check sum: 1b67f78b73fe58c7924490f171ce8a1e
     Pseudo is Projector augmented-wave + core cor, Zval =  3.0
     Generated using "atomic" code by A. Dal Corso v.6.3
     Shape of augmentation charge: PSQ
     Using radial grid of 1135 points,  4 beta functions with: 
                l(1) =   0
                l(2) =   0
                l(3) =   1
                l(4) =   1
     Q(r) pseudized with 0 coefficients 


     atomic species   valence    mass     pseudopotential
        Al             3.00    26.98200     Al( 1.00)

     No symmetry found



   Cartesian axes

     site n.     atom                  positions (alat units)
         1           Al  tau(   1) = (  -0.0000654   0.0000190   0.0001361  )
         2           Al  tau(   2) = (   0.5001592   0.4996200   0.0001406  )
         3           Al  tau(   3) = (   0.4998143   0.0000610   0.5005910  )
         4           Al  tau(   4) = (  -0.0000400   0.5004374   0.5003674  )

     number of k points=    63  Marzari-Vanderbilt smearing, width (Ry)=  0.0500
                       cart. coord. in units 2pi/alat
        k(    1) = (   0.1000000   0.1000000   0.1000000), wk =   0.0320000
        k(    2) = (   0.1000000   0.1000000   0.3000000), wk =   0.0320000
        k(    3) = (   0.1000000   0.1000000  -0.5000000), wk =   0.0320000
        k(    4) = (   0.1000000   0.3000000   0.3000000), wk =   0.0320000
        k(    5) = (   0.1000000   0.3000000  -0.5000000), wk =   0.0320000
        k(    6) = (   0.1000000  -0.5000000  -0.5000000), wk =   0.0320000
        k(    7) = (   0.3000000   0.3000000   0.3000000), wk =   0.0320000
        k(    8) = (   0.3000000   0.3000000  -0.5000000), wk =   0.0320000
        k(    9) = (   0.3000000  -0.5000000  -0.5000000), wk =   0.0320000
        k(   10) = (  -0.5000000  -0.5000000  -0.5000000), wk =   0.0160000
        k(   11) = (  -0.1000000  -0.1000000   0.1000000), wk =   0.0320000
        k(   12) = (  -0.1000000   0.1000000  -0.1000000), wk =   0.0320000
        k(   13) = (   0.1000000  -0.1000000  -0.1000000), wk =   0.0320000
        k(   14) = (  -0.1000000  -0.1000000   0.3000000), wk =   0.0320000
        k(   15) = (  -0.1000000   0.1000000  -0.3000000), wk =   0.0320000
        k(   16) = (   0.1000000  -0.1000000  -0.3000000), wk =   0.0320000
        k(   17) = (   0.3000000  -0.1000000   0.1000000), wk =   0.0320000
        k(   18) = (  -0.3000000  -0.1000000  -0.1000000), wk =   0.0320000
        k(   19) = (   0.3000000   0.1000000  -0.1000000), wk =   0.0320000
        k(   20) = (  -0.3000000   0.1000000   0.1000000), wk =   0.0320000
        k(   21) = (  -0.1000000   0.3000000   0.1000000), wk =   0.0320000
        k(   22) = (  -0.1000000  -0.3000000  -0.1000000), wk =   0.0320000
        k(   23) = (   0.1000000   0.3000000  -0.1000000), wk =   0.0320000
        k(   24) = (   0.1000000  -0.3000000   0.1000000), wk =   0.0320000
        k(   25) = (  -0.1000000   0.1000000   0.5000000), wk =   0.0320000
        k(   26) = (  -0.5000000  -0.1000000   0.1000000), wk =   0.0320000
        k(   27) = (   0.5000000  -0.1000000  -0.1000000), wk =   0.0320000
        k(   28) = (  -0.1000000  -0.5000000   0.1000000), wk =   0.0320000
        k(   29) = (  -0.1000000   0.5000000  -0.1000000), wk =   0.0320000
        k(   30) = (  -0.1000000  -0.3000000   0.3000000), wk =   0.0320000
        k(   31) = (  -0.1000000   0.3000000  -0.3000000), wk =   0.0320000
        k(   32) = (   0.1000000  -0.3000000  -0.3000000), wk =   0.0320000
        k(   33) = (   0.3000000   0.1000000  -0.3000000), wk =   0.0320000
        k(   34) = (  -0.3000000  -0.1000000  -0.3000000), wk =   0.0320000
        k(   35) = (   0.3000000  -0.1000000   0.3000000), wk =   0.0320000
        k(   36) = (  -0.3000000   0.1000000   0.3000000), wk =   0.0320000
        k(   37) = (   0.3000000  -0.3000000   0.1000000), wk =   0.0320000
        k(   38) = (  -0.3000000  -0.3000000  -0.1000000), wk =   0.0320000
        k(   39) = (   0.3000000   0.3000000  -0.1000000), wk =   0.0320000
        k(   40) = (  -0.3000000   0.3000000   0.1000000), wk =   0.0320000
        k(   41) = (  -0.1000000   0.3000000   0.5000000), wk =   0.0320000
        k(   42) = (   0.3000000   0.1000000   0.5000000), wk =   0.0320000
        k(   43) = (   0.3000000  -0.1000000  -0.5000000), wk =   0.0320000
        k(   44) = (  -0.5000000  -0.3000000   0.1000000), wk =   0.0320000
        k(   45) = (   0.5000000  -0.3000000  -0.1000000), wk =   0.0320000
        k(   46) = (  -0.1000000  -0.5000000   0.3000000), wk =   0.0320000
        k(   47) = (  -0.1000000   0.5000000  -0.3000000), wk =   0.0320000
        k(   48) = (   0.3000000  -0.5000000   0.1000000), wk =   0.0320000
        k(   49) = (   0.3000000   0.5000000  -0.1000000), wk =   0.0320000
        k(   50) = (  -0.5000000   0.1000000   0.3000000), wk =   0.0320000
        k(   51) = (   0.5000000  -0.1000000   0.3000000), wk =   0.0320000
        k(   52) = (  -0.5000000   0.1000000   0.5000000), wk =   0.0320000
        k(   53) = (  -0.5000000   0.5000000   0.1000000), wk =   0.0320000
        k(   54) = (  -0.3000000  -0.3000000   0.3000000), wk =   0.0320000
        k(   55) = (  -0.3000000   0.3000000  -0.3000000), wk =   0.0320000
        k(   56) = (   0.3000000  -0.3000000  -0.3000000), wk =   0.0320000
        k(   57) = (  -0.3000000   0.3000000   0.5000000), wk =   0.0320000
        k(   58) = (  -0.5000000  -0.3000000   0.3000000), wk =   0.0320000
        k(   59) = (   0.5000000  -0.3000000  -0.3000000), wk =   0.0320000
        k(   60) = (  -0.3000000  -0.5000000   0.3000000), wk =   0.0320000
        k(   61) = (  -0.3000000   0.5000000  -0.3000000), wk =   0.0320000
        k(   62) = (  -0.5000000   0.3000000   0.5000000), wk =   0.0320000
        k(   63) = (  -0.5000000   0.5000000   0.3000000), wk =   0.0320000

     Dense  grid:     7497 G-vectors     FFT dimensions: (  25,  25,  25)

     Estimated max dynamical RAM per process >       9.81 MB

     Estimated total dynamical RAM >      39.25 MB

     Initial potential from superposition of free atoms

     starting charge   11.99084, renormalised to   12.00000
     Starting wfcs are   16 randomized atomic wfcs
     Checking if some PAW data can be deallocated... 

     total cpu time spent up to now is        1.0 secs

     Self-consistent Calculation

     iteration #  1     ecut=    50.00 Ry     beta= 0.10
     Davidson diagonalization with overlap
     ethr =  1.00E-02,  avg # of iterations =  3.1

     Threshold (ethr) on eigenvalues was too large:
     Diagonalizing with lowered threshold

     Davidson diagonalization with overlap
     ethr =  1.94E-04,  avg # of iterations =  3.6

     total cpu time spent up to now is        3.0 secs

     total energy              =    -158.01009652 Ry
     Harris-Foulkes estimate   =    -158.01088976 Ry
     estimated scf accuracy    <       0.02265038 Ry

     iteration #  2     ecut=    50.00 Ry     beta= 0.10
     Davidson diagonalization with overlap
     ethr =  1.89E-04,  avg # of iterations =  2.0

     total cpu time spent up to now is        3.8 secs

     total energy              =    -158.00422056 Ry
     Harris-Foulkes estimate   =    -158.01020145 Ry
     estimated scf accuracy    <       0.01954164 Ry

     iteration #  3     ecut=    50.00 Ry     beta= 0.10
     Davidson diagonalization with overlap
     ethr =  1.63E-04,  avg # of iterations =  1.0

     total cpu time spent up to now is        4.5 secs

     total energy              =    -158.00455722 Ry
     Harris-Foulkes estimate   =    -158.00459282 Ry
     estimated scf accuracy    <       0.00008070 Ry

     iteration #  4     ecut=    50.00 Ry     beta= 0.10
     Davidson diagonalization with overlap
     ethr =  6.72E-07,  avg # of iterations =  4.2

     total cpu time spent up to now is        5.7 secs

     total energy              =    -158.00461600 Ry
     Harris-Foulkes estimate   =    -158.00462955 Ry
     estimated scf accuracy    <       0.00005434 Ry

     iteration #  5     ecut=    50.00 Ry     beta= 0.10
     Davidson diagonalization with overlap
     ethr =  4.53E-07,  avg # of iterations =  1.0

     total cpu time spent up to now is        6.3 secs

     total energy              =    -158.00457424 Ry
     Harris-Foulkes estimate   =    -158.00461722 Ry
     estimated scf accuracy    <       0.00003984 Ry

     iteration #  6     ecut=    50.00 Ry     beta= 0.10
     Davidson diagonalization with overlap
     ethr =  3.32E-07,  avg # of iterations =  2.0

     total cpu time spent up to now is        7.2 secs

     End of self-consistent calculation

          k = 0.1000 0.1000 0.1000 (  2647 PWs)   bands (ev):

    -2.9610   4.0419   4.0443   4.0467   7.7415   7.7443   7.7469  10.7608
    10.7638  10.7668

          k = 0.1000 0.1000 0.3000 (  2672 PWs)   bands (ev):

    -2.2386   1.3162   4.7251   4.7286   8.0300   8.0362   8.5374   8.5382
    11.3566  11.7969

          k = 0.1000 0.1000-0.5000 (  2658 PWs)   bands (ev):

    -0.8083  -0.8012   5.9698   5.9704   6.2116   6.2124   9.5130   9.5134
    10.1753  10.1762

          k = 0.1000 0.3000 0.3000 (  2669 PWs)   bands (ev):

    -1.5198   2.0155   2.0188   5.3106   5.5770   8.7950   8.7994   9.1506
    12.1850  12.1909

          k = 0.1000 0.3000-0.5000 (  2656 PWs)   bands (ev):

    -0.0966  -0.0895   3.4043   3.4116   6.7770   6.7847  10.1402  10.1484
    10.4851  10.4919

          k = 0.1000-0.5000-0.5000 (  2668 PWs)   bands (ev):

     1.3157   1.3162   1.3230   1.3241   8.1283   8.1290   8.1366   8.1379
    11.8270  11.8320

          k = 0.3000 0.3000 0.3000 (  2653 PWs)   bands (ev):

    -0.8046   2.7118   2.7143   2.7169   6.1656   6.1684   6.1711   9.5507
    13.0699  13.0733

          k = 0.3000 0.3000-0.5000 (  2644 PWs)   bands (ev):

     0.6117   0.6189   3.9827   3.9832   4.2323   4.2332   7.5266   7.5343
    14.5699  14.5709

          k = 0.3000-0.5000-0.5000 (  2660 PWs)   bands (ev):

     2.0169   2.0174   2.0242   2.0254   5.4863   5.4868   5.4938   5.4950
    15.6223  15.6274

          k =-0.5000-0.5000-0.5000 (  2608 PWs)   bands (ev):

     3.3111   3.3114   3.3115   3.3120   3.5286   3.5296   3.5297   3.5302
    19.3125  19.3131

          k =-0.1000-0.1000 0.1000 (  2647 PWs)   bands (ev):

    -2.9610   4.0424   4.0443   4.0462   7.7421   7.7443   7.7464  10.7614
    10.7638  10.7662

          k =-0.1000 0.1000-0.1000 (  2647 PWs)   bands (ev):

    -2.9610   4.0429   4.0443   4.0457   7.7427   7.7443   7.7458  10.7621
    10.7638  10.7655

          k = 0.1000-0.1000-0.1000 (  2647 PWs)   bands (ev):

    -2.9610   4.0426   4.0443   4.0460   7.7423   7.7443   7.7462  10.7616
    10.7638  10.7659

          k =-0.1000-0.1000 0.3000 (  2672 PWs)   bands (ev):

    -2.2386   1.3162   4.7251   4.7286   8.0300   8.0362   8.5374   8.5382
    11.3566  11.7974

          k =-0.1000 0.1000-0.3000 (  2672 PWs)   bands (ev):

    -2.2386   1.3162   4.7260   4.7276   8.0317   8.0345   8.5376   8.5380
    11.3566  11.7970

          k = 0.1000-0.1000-0.3000 (  2672 PWs)   bands (ev):

    -2.2386   1.3162   4.7260   4.7276   8.0317   8.0345   8.5376   8.5380
    11.3566  11.7973

          k = 0.3000-0.1000 0.1000 (  2672 PWs)   bands (ev):

    -2.2386   1.3162   4.7260   4.7277   8.0316   8.0345   8.5376   8.5380
    11.3566  11.7969

          k =-0.3000-0.1000-0.1000 (  2672 PWs)   bands (ev):

    -2.2386   1.3162   4.7253   4.7284   8.0305   8.0357   8.5374   8.5381
    11.3566  11.7966

          k = 0.3000 0.1000-0.1000 (  2672 PWs)   bands (ev):

    -2.2386   1.3162   4.7260   4.7277   8.0316   8.0345   8.5376   8.5380
    11.3566  11.7968

          k =-0.3000 0.1000 0.1000 (  2672 PWs)   bands (ev):

    -2.2386   1.3162   4.7253   4.7284   8.0304   8.0357   8.5375   8.5381
    11.3566  11.7968

          k =-0.1000 0.3000 0.1000 (  2672 PWs)   bands (ev):

    -2.2386   1.3162   4.7266   4.7271   8.0326   8.0335   8.5377   8.5379
    11.3566  11.7967

          k =-0.1000-0.3000-0.1000 (  2672 PWs)   bands (ev):

    -2.2386   1.3162   4.7261   4.7276   8.0316   8.0345   8.5377   8.5379
    11.3566  11.7968

          k = 0.1000 0.3000-0.1000 (  2672 PWs)   bands (ev):

    -2.2386   1.3162   4.7266   4.7271   8.0326   8.0335   8.5377   8.5379
    11.3566  11.7963

          k = 0.1000-0.3000 0.1000 (  2672 PWs)   bands (ev):

    -2.2386   1.3162   4.7261   4.7276   8.0316   8.0345   8.5377   8.5379
    11.3566  11.7968

          k =-0.1000 0.1000 0.5000 (  2658 PWs)   bands (ev):

    -0.8083  -0.8012   5.9699   5.9704   6.2115   6.2124   9.5130   9.5133
    10.1752  10.1763

          k =-0.5000-0.1000 0.1000 (  2658 PWs)   bands (ev):

    -0.8052  -0.8043   5.9700   5.9704   6.2116   6.2122   9.5131   9.5133
    10.1753  10.1761

          k = 0.5000-0.1000-0.1000 (  2658 PWs)   bands (ev):

    -0.8052  -0.8043   5.9700   5.9704   6.2116   6.2122   9.5131   9.5133
    10.1753  10.1761

          k =-0.1000-0.5000 0.1000 (  2658 PWs)   bands (ev):

    -0.8050  -0.8046   5.9701   5.9703   6.2117   6.2121   9.5131   9.5132
    10.1755  10.1759

          k =-0.1000 0.5000-0.1000 (  2658 PWs)   bands (ev):

    -0.8050  -0.8046   5.9701   5.9703   6.2118   6.2120   9.5131   9.5133
    10.1756  10.1759

          k =-0.1000-0.3000 0.3000 (  2669 PWs)   bands (ev):

    -1.5198   2.0163   2.0181   5.3106   5.5770   8.7960   8.7984   9.1506
    12.1869  12.1907

          k =-0.1000 0.3000-0.3000 (  2669 PWs)   bands (ev):

    -1.5198   2.0163   2.0181   5.3106   5.5770   8.7960   8.7984   9.1506
    12.1870  12.1906

          k = 0.1000-0.3000-0.3000 (  2669 PWs)   bands (ev):

    -1.5198   2.0155   2.0188   5.3106   5.5770   8.7950   8.7994   9.1506
    12.1857  12.1920

          k = 0.3000 0.1000-0.3000 (  2669 PWs)   bands (ev):

    -1.5198   2.0169   2.0175   5.3106   5.5770   8.7968   8.7976   9.1506
    12.1877  12.1894

          k =-0.3000-0.1000-0.3000 (  2669 PWs)   bands (ev):

    -1.5198   2.0163   2.0180   5.3106   5.5770   8.7960   8.7984   9.1506
    12.1858  12.1904

          k = 0.3000-0.1000 0.3000 (  2669 PWs)   bands (ev):

    -1.5198   2.0163   2.0180   5.3106   5.5770   8.7960   8.7984   9.1506
    12.1869  12.1905

          k =-0.3000 0.1000 0.3000 (  2669 PWs)   bands (ev):

    -1.5198   2.0169   2.0175   5.3106   5.5770   8.7968   8.7976   9.1506
    12.1880  12.1892

          k = 0.3000-0.3000 0.1000 (  2669 PWs)   bands (ev):

    -1.5198   2.0163   2.0180   5.3106   5.5770   8.7960   8.7984   9.1506
    12.1868  12.1889

          k =-0.3000-0.3000-0.1000 (  2669 PWs)   bands (ev):

    -1.5198   2.0153   2.0190   5.3106   5.5770   8.7947   8.7998   9.1506
    12.1850  12.1918

          k = 0.3000 0.3000-0.1000 (  2669 PWs)   bands (ev):

    -1.5198   2.0153   2.0190   5.3106   5.5770   8.7947   8.7998   9.1506
    12.1851  12.1923

          k =-0.3000 0.3000 0.1000 (  2669 PWs)   bands (ev):

    -1.5198   2.0163   2.0180   5.3106   5.5770   8.7960   8.7984   9.1506
    12.1862  12.1906

          k =-0.1000 0.3000 0.5000 (  2656 PWs)   bands (ev):

    -0.0966  -0.0895   3.4043   3.4116   6.7770   6.7847  10.1402  10.1484
    10.4852  10.4919

          k = 0.3000 0.1000 0.5000 (  2656 PWs)   bands (ev):

    -0.0966  -0.0895   3.4043   3.4115   6.7770   6.7847  10.1402  10.1484
    10.4852  10.4919

          k = 0.3000-0.1000-0.5000 (  2656 PWs)   bands (ev):

    -0.0966  -0.0895   3.4043   3.4115   6.7770   6.7847  10.1402  10.1484
    10.4852  10.4919

          k =-0.5000-0.3000 0.1000 (  2656 PWs)   bands (ev):

    -0.0935  -0.0926   3.4074   3.4084   6.7803   6.7814  10.1438  10.1448
    10.4881  10.4890

          k = 0.5000-0.3000-0.1000 (  2656 PWs)   bands (ev):

    -0.0935  -0.0926   3.4074   3.4084   6.7803   6.7814  10.1438  10.1448
    10.4881  10.4890

          k =-0.1000-0.5000 0.3000 (  2656 PWs)   bands (ev):

    -0.0933  -0.0929   3.4077   3.4081   6.7806   6.7811  10.1441  10.1445
    10.4883  10.4887

          k =-0.1000 0.5000-0.3000 (  2656 PWs)   bands (ev):

    -0.0933  -0.0929   3.4077   3.4081   6.7806   6.7811  10.1441  10.1445
    10.4883  10.4887

          k = 0.3000-0.5000 0.1000 (  2656 PWs)   bands (ev):

    -0.0933  -0.0929   3.4077   3.4081   6.7806   6.7811  10.1441  10.1445
    10.4883  10.4888

          k = 0.3000 0.5000-0.1000 (  2656 PWs)   bands (ev):

    -0.0933  -0.0928   3.4077   3.4081   6.7806   6.7811  10.1440  10.1445
    10.4883  10.4888

          k =-0.5000 0.1000 0.3000 (  2656 PWs)   bands (ev):

    -0.0935  -0.0926   3.4074   3.4084   6.7803   6.7814  10.1438  10.1448
    10.4881  10.4890

          k = 0.5000-0.1000 0.3000 (  2656 PWs)   bands (ev):

    -0.0935  -0.0926   3.4074   3.4084   6.7803   6.7814  10.1438  10.1448
    10.4881  10.4890

          k =-0.5000 0.1000 0.5000 (  2668 PWs)   bands (ev):

     1.3157   1.3165   1.3227   1.3240   8.1286   8.1293   8.1362   8.1378
    11.8305  11.8335

          k =-0.5000 0.5000 0.1000 (  2668 PWs)   bands (ev):

     1.3178   1.3189   1.3205   1.3218   8.1304   8.1318   8.1340   8.1356
    11.8297  11.8305

          k =-0.3000-0.3000 0.3000 (  2653 PWs)   bands (ev):

    -0.8046   2.7122   2.7143   2.7164   6.1662   6.1684   6.1706   9.5507
    13.0706  13.0728

          k =-0.3000 0.3000-0.3000 (  2653 PWs)   bands (ev):

    -0.8046   2.7129   2.7143   2.7158   6.1668   6.1684   6.1700   9.5507
    13.0716  13.0735

          k = 0.3000-0.3000-0.3000 (  2653 PWs)   bands (ev):

    -0.8046   2.7125   2.7143   2.7161   6.1664   6.1684   6.1703   9.5507
    13.0702  13.0734

          k =-0.3000 0.3000 0.5000 (  2644 PWs)   bands (ev):

     0.6117   0.6189   3.9827   3.9832   4.2323   4.2332   7.5266   7.5343
    14.5698  14.5704

          k =-0.5000-0.3000 0.3000 (  2644 PWs)   bands (ev):

     0.6148   0.6157   3.9828   3.9832   4.2323   4.2330   7.5300   7.5309
    14.5694  14.5707

          k = 0.5000-0.3000-0.3000 (  2644 PWs)   bands (ev):

     0.6148   0.6157   3.9828   3.9832   4.2323   4.2330   7.5300   7.5309
    14.5695  14.5707

          k =-0.3000-0.5000 0.3000 (  2644 PWs)   bands (ev):

     0.6151   0.6155   3.9830   3.9831   4.2325   4.2328   7.5302   7.5307
    14.5699  14.5705

          k =-0.3000 0.5000-0.3000 (  2644 PWs)   bands (ev):

     0.6151   0.6155   3.9829   3.9831   4.2325   4.2328   7.5302   7.5307
    14.1698  14.5705

          k =-0.5000 0.3000 0.5000 (  2660 PWs)   bands (ev):

     2.0170   2.0177   2.0240   2.0253   5.4863   5.4871   5.4935   5.4949
    15.6205  15.6255

          k =-0.5000 0.5000 0.3000 (  2660 PWs)   bands (ev):

     2.0190   2.0201   2.0218   2.0230   5.4884   5.4896   5.4913   5.4926
    15.6242  15.6254

     the Fermi energy is     8.0727 ev

!    total energy              =    -158.00458410 Ry
     Harris-Foulkes estimate   =    -158.00458430 Ry
     estimated scf accuracy    <       0.00000093 Ry

     total all-electron energy =     -1942.575706 Ry

     The total energy is the sum of the following terms:

     one-electron contribution =      12.67030219 Ry
     hartree contribution      =       0.02445883 Ry
     xc contribution           =     -10.36375256 Ry
     ewald contribution        =     -21.61650270 Ry
     one-center paw contrib.   =    -138.70895823 Ry
     smearing contrib. (-TS)   =      -0.01013163 Ry

     convergence has been achieved in   6 iterations

     Forces acting on atoms (cartesian axes, Ry/au):

     atom    1 type  1   force =     0.00006197   -0.00004636    0.00023655
     atom    2 type  1   force =    -0.00017652    0.00021304    0.00023729
     atom    3 type  1   force =     0.00005242    0.00004949   -0.00034466
     atom    4 type  1   force =     0.00006213   -0.00021617   -0.00012918

     Total force =     0.000621     Total SCF correction =     0.000227
     SCF correction compared to forces is large: reduce conv_thr to get better values


     Computing stress (Cartesian axis) and pressure

          total   stress  (Ry/bohr**3)                   (kbar)     P=    1.07
   0.00000727   0.00000001   0.00000001          1.07      0.00      0.00
   0.00000001   0.00000728   0.00000001          0.00      1.07      0.00
   0.00000001   0.00000001   0.00000729          0.00      0.00      1.07


     Writing output data file fe_scf_fcc_2.save/

     init_run     :      0.53s CPU      0.55s WALL (       1 calls)
     electrons    :      5.84s CPU      6.19s WALL (       1 calls)
     forces       :      0.15s CPU      0.16s WALL (       1 calls)
     stress       :      0.28s CPU      0.28s WALL (       1 calls)

     Called by init_run:
     wfcinit      :      0.42s CPU      0.44s WALL (       1 calls)
     potinit      :      0.05s CPU      0.05s WALL (       1 calls)
     hinit0       :      0.05s CPU      0.05s WALL (       1 calls)

     Called by electrons:
     c_bands      :      4.86s CPU      5.16s WALL (       7 calls)
     sum_band     :      0.68s CPU      0.72s WALL (       7 calls)
     v_of_rho     :      0.02s CPU      0.02s WALL (       7 calls)
     newd         :      0.01s CPU      0.01s WALL (       7 calls)
     PAW_pot      :      0.31s CPU      0.32s WALL (       7 calls)
     mix_rho      :      0.00s CPU      0.00s WALL (       7 calls)

     Called by c_bands:
     init_us_2    :      0.16s CPU      0.16s WALL (    1071 calls)
     cegterg      :      4.59s CPU      4.87s WALL (     441 calls)

     Called by sum_band:
     sum_band:bec :      0.00s CPU      0.00s WALL (     441 calls)
     addusdens    :      0.01s CPU      0.01s WALL (       7 calls)

     Called by *egterg:
     h_psi        :      2.97s CPU      3.16s WALL (    1566 calls)
     s_psi        :      0.39s CPU      0.41s WALL (    1566 calls)
     g_psi        :      0.02s CPU      0.02s WALL (    1062 calls)
     cdiaghg      :      0.27s CPU      0.29s WALL (    1440 calls)

     Called by h_psi:
     h_psi:pot    :      2.95s CPU      3.14s WALL (    1566 calls)
     h_psi:calbec :      0.59s CPU      0.64s WALL (    1566 calls)
     vloc_psi     :      1.96s CPU      2.08s WALL (    1566 calls)
     add_vuspsi   :      0.39s CPU      0.41s WALL (    1566 calls)

     General routines
     calbec       :      1.00s CPU      1.07s WALL (    2322 calls)
     fft          :      0.01s CPU      0.01s WALL (     103 calls)
     ffts         :      0.00s CPU      0.00s WALL (       7 calls)
     fftw         :      2.15s CPU      2.28s WALL (   29738 calls)

     Parallel routines
     fft_scatt_xy :      0.24s CPU      0.25s WALL (   29848 calls)
     fft_scatt_yz :      1.11s CPU      1.18s WALL (   29848 calls)

     PWSCF        :      7.32s CPU      7.74s WALL


   This run was terminated on:  16: 1:11  24Feb2020            

=------------------------------------------------------------------------------=
   JOB DONE.
=------------------------------------------------------------------------------=
