
     Program PWSCF v.6.3 starts on 30Oct2019 at  0:45:44 

     This program is part of the open-source Quantum ESPRESSO suite
     for quantum simulation of materials; please cite
         "P. Giannozzi et al., J. Phys.:Condens. Matter 21 395502 (2009);
         "P. Giannozzi et al., J. Phys.:Condens. Matter 29 465901 (2017);
          URL http://www.quantum-espresso.org", 
     in publications or presentations arising from this work. More details at
     http://www.quantum-espresso.org/quote

     Parallel version (MPI), running on     1 processors

     MPI processes distributed on     1 nodes
     Reading input from /cloud/Code/python/py_pwscf_converge/src/example2/wd/runpwscf/file_10279.in
Warning: card &IONS ignored
Warning: card ION_DYNAMICS = 'BFGS', ignored
Warning: card / ignored
Warning: card &CELL ignored
Warning: card CELL_DYNAMICS = 'BFGS', ignored
Warning: card CELL_FACTOR = 2.0, ignored
Warning: card PRESS = 0.0, ignored
Warning: card / ignored

     Current dimensions of program PWSCF are:
     Max number of different atomic species (ntypx) = 10
     Max number of k-points (npk) =  40000
     Max angular momentum in pseudopotentials (lmaxx) =  3
               file Al.pbe-nl-kjpaw_psl.1.0.0.UPF: wavefunction(s)  3S 3P renormalized

     Subspace diagonalization in iterative solution of the eigenvalue problem:
     a serial algorithm will be used


     G-vector sticks info
     --------------------
     sticks:   dense  smooth     PW     G-vecs:    dense   smooth      PW
     Sum         121     121     81                  949      949     515



     bravais-lattice index     =            0
     lattice parameter (alat)  =       4.0400  a.u.
     unit-cell volume          =      65.9393 (a.u.)^3
     number of atoms/cell      =            4
     number of atomic types    =            1
     number of electrons       =        12.00
     number of Kohn-Sham states=           10
     kinetic-energy cutoff     =      42.0000  Ry
     charge density cutoff     =      90.0000  Ry
     convergence threshold     =      1.0E-06
     mixing beta               =       0.1000
     number of iterations used =           10  TF        mixing
     Exchange-correlation      = SLA PW PBX PBC ( 1  4  3  4 0 0)

     celldm(1)=   4.040000  celldm(2)=   0.000000  celldm(3)=   0.000000
     celldm(4)=   0.000000  celldm(5)=   0.000000  celldm(6)=   0.000000

     crystal axes: (cart. coord. in units of alat)
               a(1) = (   1.000000   0.000000   0.000000 )  
               a(2) = (   0.000000   1.000000   0.000000 )  
               a(3) = (   0.000000   0.000000   1.000000 )  

     reciprocal axes: (cart. coord. in units 2 pi/alat)
               b(1) = (  1.000000  0.000000  0.000000 )  
               b(2) = (  0.000000  1.000000  0.000000 )  
               b(3) = (  0.000000  0.000000  1.000000 )  


     PseudoPot. # 1 for Al read from file:
     /opt/pp/Al.pbe-nl-kjpaw_psl.1.0.0.UPF
     MD5 check sum: 1b67f78b73fe58c7924490f171ce8a1e
     Pseudo is Projector augmented-wave + core cor, Zval =  3.0
     Generated using "atomic" code by A. Dal Corso v.6.3
     Shape of augmentation charge: PSQ
     Using radial grid of 1135 points,  4 beta functions with: 
                l(1) =   0
                l(2) =   0
                l(3) =   1
                l(4) =   1
     Q(r) pseudized with 0 coefficients 


     atomic species   valence    mass     pseudopotential
        Al             3.00    26.98200     Al( 1.00)

     No symmetry found



   Cartesian axes

     site n.     atom                  positions (alat units)
         1           Al  tau(   1) = (  -0.0001235   0.0000359   0.0002572  )
         2           Al  tau(   2) = (   0.5003009   0.4992819   0.0002658  )
         3           Al  tau(   3) = (   0.4996490   0.0001153   0.5011170  )
         4           Al  tau(   4) = (  -0.0000756   0.5008267   0.5006943  )

     number of k points=   172  Marzari-Vanderbilt smearing, width (Ry)=  0.0050

     Number of k-points >= 100: set verbosity='high' to print them.

     Dense  grid:      949 G-vectors     FFT dimensions: (  15,  15,  15)

     Estimated max dynamical RAM per process >       9.75 MB

     Initial potential from superposition of free atoms

     starting charge   11.99084, renormalised to   12.00000
     Starting wfcs are   16 randomized atomic wfcs
     Checking if some PAW data can be deallocated... 

     total cpu time spent up to now is        1.3 secs

     Self-consistent Calculation

     iteration #  1     ecut=    42.00 Ry     beta= 0.10
     Davidson diagonalization with overlap
     ethr =  1.00E-02,  avg # of iterations =  4.9

     total cpu time spent up to now is        2.7 secs

     total energy              =    -141.65782813 Ry
     Harris-Foulkes estimate   =    -141.81245853 Ry
     estimated scf accuracy    <       0.18311069 Ry

     iteration #  2     ecut=    42.00 Ry     beta= 0.10
     Davidson diagonalization with overlap
     ethr =  1.53E-03,  avg # of iterations =  1.1

     total cpu time spent up to now is        3.5 secs

     total energy              =    -141.16933153 Ry
     Harris-Foulkes estimate   =    -141.66139204 Ry
     estimated scf accuracy    <       0.15272239 Ry

     iteration #  3     ecut=    42.00 Ry     beta= 0.10
     Davidson diagonalization with overlap
     ethr =  1.27E-03,  avg # of iterations =  2.1

     total cpu time spent up to now is        4.4 secs

     total energy              =    -141.24669792 Ry
     Harris-Foulkes estimate   =    -141.25017268 Ry
     estimated scf accuracy    <       0.01554812 Ry

     iteration #  4     ecut=    42.00 Ry     beta= 0.10
     Davidson diagonalization with overlap
     ethr =  1.30E-04,  avg # of iterations =  1.3

     total cpu time spent up to now is        5.2 secs

     total energy              =    -141.24916505 Ry
     Harris-Foulkes estimate   =    -141.24702623 Ry
     estimated scf accuracy    <       0.01220268 Ry

     iteration #  5     ecut=    42.00 Ry     beta= 0.10
     Davidson diagonalization with overlap
     ethr =  1.02E-04,  avg # of iterations =  2.0

     total cpu time spent up to now is        6.1 secs

     total energy              =    -141.25043061 Ry
     Harris-Foulkes estimate   =    -141.25035920 Ry
     estimated scf accuracy    <       0.00097798 Ry

     iteration #  6     ecut=    42.00 Ry     beta= 0.10
     Davidson diagonalization with overlap
     ethr =  8.15E-06,  avg # of iterations =  2.5

     total cpu time spent up to now is        7.0 secs

     total energy              =    -141.25016018 Ry
     Harris-Foulkes estimate   =    -141.25058749 Ry
     estimated scf accuracy    <       0.00019198 Ry

     iteration #  7     ecut=    42.00 Ry     beta= 0.10
     Davidson diagonalization with overlap
     ethr =  1.60E-06,  avg # of iterations =  2.4

     total cpu time spent up to now is        8.0 secs

     total energy              =    -141.25021750 Ry
     Harris-Foulkes estimate   =    -141.25019884 Ry
     estimated scf accuracy    <       0.00041989 Ry

     iteration #  8     ecut=    42.00 Ry     beta= 0.10
     Davidson diagonalization with overlap
     ethr =  1.60E-06,  avg # of iterations =  1.0

     total cpu time spent up to now is        8.8 secs

     total energy              =    -141.25021660 Ry
     Harris-Foulkes estimate   =    -141.25022124 Ry
     estimated scf accuracy    <       0.00004799 Ry

     iteration #  9     ecut=    42.00 Ry     beta= 0.10
     Davidson diagonalization with overlap
     ethr =  4.00E-07,  avg # of iterations =  1.0

     total cpu time spent up to now is        9.5 secs

     total energy              =    -141.25021579 Ry
     Harris-Foulkes estimate   =    -141.25021710 Ry
     estimated scf accuracy    <       0.00006108 Ry

     iteration # 10     ecut=    42.00 Ry     beta= 0.10
     Davidson diagonalization with overlap
     ethr =  4.00E-07,  avg # of iterations =  1.0

     total cpu time spent up to now is       10.3 secs

     total energy              =    -141.25021228 Ry
     Harris-Foulkes estimate   =    -141.25021602 Ry
     estimated scf accuracy    <       0.00004970 Ry

     iteration # 11     ecut=    42.00 Ry     beta= 0.10
     Davidson diagonalization with overlap
     ethr =  4.00E-07,  avg # of iterations =  1.0

     total cpu time spent up to now is       11.1 secs

     End of self-consistent calculation

     Number of k-points >= 100: set verbosity='high' to print the bands.

     the Fermi energy is    52.7355 ev

!    total energy              =    -141.25021142 Ry
     Harris-Foulkes estimate   =    -141.25021380 Ry
     estimated scf accuracy    <       0.00000057 Ry

     total all-electron energy =     -1925.821334 Ry

     The total energy is the sum of the following terms:

     one-electron contribution =      58.67131698 Ry
     hartree contribution      =       0.21588130 Ry
     xc contribution           =     -17.28805485 Ry
     ewald contribution        =     -40.85514773 Ry
     one-center paw contrib.   =    -141.99423023 Ry
     smearing contrib. (-TS)   =       0.00002311 Ry

     convergence has been achieved in  11 iterations

     Forces acting on atoms (cartesian axes, Ry/au):

     atom    1 type  1   force =     0.00210950   -0.00030949    0.01645596
     atom    2 type  1   force =    -0.00446722    0.00647567    0.01639464
     atom    3 type  1   force =     0.00060193   -0.00075897   -0.01811063
     atom    4 type  1   force =     0.00175579   -0.00540721   -0.01473997

     Total force =     0.034417     Total SCF correction =     0.000040


     Computing stress (Cartesian axis) and pressure

          total   stress  (Ry/bohr**3)                   (kbar)     P=59734.97
   0.40607455   0.00000138   0.00000099      59735.62      0.20      0.15
   0.00000138   0.40606434  -0.00000074          0.20  59734.12     -0.11
   0.00000099  -0.00000074   0.40607148          0.15     -0.11  59735.17


     Writing output data file fe_scf_fcc_2.save/

     init_run     :      0.81s CPU      0.83s WALL (       1 calls)
     electrons    :      9.51s CPU      9.86s WALL (       1 calls)
     forces       :      0.10s CPU      0.10s WALL (       1 calls)
     stress       :      0.35s CPU      0.35s WALL (       1 calls)

     Called by init_run:
     wfcinit      :      0.40s CPU      0.40s WALL (       1 calls)
     potinit      :      0.24s CPU      0.25s WALL (       1 calls)
     hinit0       :      0.18s CPU      0.18s WALL (       1 calls)

     Called by electrons:
     c_bands      :      5.98s CPU      6.15s WALL (      11 calls)
     sum_band     :      0.93s CPU      0.98s WALL (      11 calls)
     v_of_rho     :      0.02s CPU      0.03s WALL (      12 calls)
     newd         :      0.00s CPU      0.02s WALL (      12 calls)
     PAW_pot      :      2.80s CPU      2.93s WALL (      12 calls)
     mix_rho      :      0.01s CPU      0.00s WALL (      11 calls)

     Called by c_bands:
     init_us_2    :      0.38s CPU      0.43s WALL (    4300 calls)
     cegterg      :      5.32s CPU      5.51s WALL (    1892 calls)

     Called by sum_band:
     sum_band:bec :      0.01s CPU      0.01s WALL (    1892 calls)
     addusdens    :      0.01s CPU      0.01s WALL (      11 calls)

     Called by *egterg:
     h_psi        :      3.58s CPU      3.72s WALL (    5514 calls)
     s_psi        :      0.33s CPU      0.35s WALL (    5514 calls)
     g_psi        :      0.05s CPU      0.06s WALL (    3450 calls)
     cdiaghg      :      0.75s CPU      0.80s WALL (    5342 calls)

     Called by h_psi:
     h_psi:pot    :      3.56s CPU      3.69s WALL (    5514 calls)
     h_psi:calbec :      0.32s CPU      0.34s WALL (    5514 calls)
     vloc_psi     :      2.82s CPU      2.97s WALL (    5514 calls)
     add_vuspsi   :      0.40s CPU      0.37s WALL (    5514 calls)

     General routines
     calbec       :      0.46s CPU      0.51s WALL (    8266 calls)
     fft          :      0.01s CPU      0.00s WALL (     158 calls)
     ffts         :      0.00s CPU      0.00s WALL (      11 calls)
     fftw         :      2.88s CPU      2.97s WALL (  112776 calls)

     Parallel routines

     PWSCF        :    11.21s CPU        11.61s WALL


   This run was terminated on:   0:45:56  30Oct2019            

=------------------------------------------------------------------------------=
   JOB DONE.
=------------------------------------------------------------------------------=
