
     Program PWSCF v.6.3 starts on 30Oct2019 at  0:44:47 

     This program is part of the open-source Quantum ESPRESSO suite
     for quantum simulation of materials; please cite
         "P. Giannozzi et al., J. Phys.:Condens. Matter 21 395502 (2009);
         "P. Giannozzi et al., J. Phys.:Condens. Matter 29 465901 (2017);
          URL http://www.quantum-espresso.org", 
     in publications or presentations arising from this work. More details at
     http://www.quantum-espresso.org/quote

     Parallel version (MPI), running on     1 processors

     MPI processes distributed on     1 nodes
     Reading input from /cloud/Code/python/py_pwscf_converge/src/example2/wd/runpwscf/file_10273.in
Warning: card &IONS ignored
Warning: card ION_DYNAMICS = 'BFGS', ignored
Warning: card / ignored
Warning: card &CELL ignored
Warning: card CELL_DYNAMICS = 'BFGS', ignored
Warning: card CELL_FACTOR = 2.0, ignored
Warning: card PRESS = 0.0, ignored
Warning: card / ignored

     Current dimensions of program PWSCF are:
     Max number of different atomic species (ntypx) = 10
     Max number of k-points (npk) =  40000
     Max angular momentum in pseudopotentials (lmaxx) =  3
               file Al.pbe-nl-kjpaw_psl.1.0.0.UPF: wavefunction(s)  3S 3P renormalized

     Subspace diagonalization in iterative solution of the eigenvalue problem:
     a serial algorithm will be used


     G-vector sticks info
     --------------------
     sticks:   dense  smooth     PW     G-vecs:    dense   smooth      PW
     Sum         121     121     81                  949      949     515



     bravais-lattice index     =            0
     lattice parameter (alat)  =       4.0400  a.u.
     unit-cell volume          =      65.9393 (a.u.)^3
     number of atoms/cell      =            4
     number of atomic types    =            1
     number of electrons       =        12.00
     number of Kohn-Sham states=           10
     kinetic-energy cutoff     =      42.0000  Ry
     charge density cutoff     =      90.0000  Ry
     convergence threshold     =      1.0E-06
     mixing beta               =       0.1000
     number of iterations used =           10  TF        mixing
     Exchange-correlation      = SLA PW PBX PBC ( 1  4  3  4 0 0)

     celldm(1)=   4.040000  celldm(2)=   0.000000  celldm(3)=   0.000000
     celldm(4)=   0.000000  celldm(5)=   0.000000  celldm(6)=   0.000000

     crystal axes: (cart. coord. in units of alat)
               a(1) = (   1.000000   0.000000   0.000000 )  
               a(2) = (   0.000000   1.000000   0.000000 )  
               a(3) = (   0.000000   0.000000   1.000000 )  

     reciprocal axes: (cart. coord. in units 2 pi/alat)
               b(1) = (  1.000000  0.000000  0.000000 )  
               b(2) = (  0.000000  1.000000  0.000000 )  
               b(3) = (  0.000000  0.000000  1.000000 )  


     PseudoPot. # 1 for Al read from file:
     /opt/pp/Al.pbe-nl-kjpaw_psl.1.0.0.UPF
     MD5 check sum: 1b67f78b73fe58c7924490f171ce8a1e
     Pseudo is Projector augmented-wave + core cor, Zval =  3.0
     Generated using "atomic" code by A. Dal Corso v.6.3
     Shape of augmentation charge: PSQ
     Using radial grid of 1135 points,  4 beta functions with: 
                l(1) =   0
                l(2) =   0
                l(3) =   1
                l(4) =   1
     Q(r) pseudized with 0 coefficients 


     atomic species   valence    mass     pseudopotential
        Al             3.00    26.98200     Al( 1.00)

     No symmetry found



   Cartesian axes

     site n.     atom                  positions (alat units)
         1           Al  tau(   1) = (  -0.0001235   0.0000359   0.0002572  )
         2           Al  tau(   2) = (   0.5003009   0.4992819   0.0002658  )
         3           Al  tau(   3) = (   0.4996490   0.0001153   0.5011170  )
         4           Al  tau(   4) = (  -0.0000756   0.5008267   0.5006943  )

     number of k points=    63  Marzari-Vanderbilt smearing, width (Ry)=  0.0200
                       cart. coord. in units 2pi/alat
        k(    1) = (   0.1000000   0.1000000   0.1000000), wk =   0.0320000
        k(    2) = (   0.1000000   0.1000000   0.3000000), wk =   0.0320000
        k(    3) = (   0.1000000   0.1000000  -0.5000000), wk =   0.0320000
        k(    4) = (   0.1000000   0.3000000   0.3000000), wk =   0.0320000
        k(    5) = (   0.1000000   0.3000000  -0.5000000), wk =   0.0320000
        k(    6) = (   0.1000000  -0.5000000  -0.5000000), wk =   0.0320000
        k(    7) = (   0.3000000   0.3000000   0.3000000), wk =   0.0320000
        k(    8) = (   0.3000000   0.3000000  -0.5000000), wk =   0.0320000
        k(    9) = (   0.3000000  -0.5000000  -0.5000000), wk =   0.0320000
        k(   10) = (  -0.5000000  -0.5000000  -0.5000000), wk =   0.0160000
        k(   11) = (  -0.1000000  -0.1000000   0.1000000), wk =   0.0320000
        k(   12) = (  -0.1000000   0.1000000  -0.1000000), wk =   0.0320000
        k(   13) = (   0.1000000  -0.1000000  -0.1000000), wk =   0.0320000
        k(   14) = (  -0.1000000  -0.1000000   0.3000000), wk =   0.0320000
        k(   15) = (  -0.1000000   0.1000000  -0.3000000), wk =   0.0320000
        k(   16) = (   0.1000000  -0.1000000  -0.3000000), wk =   0.0320000
        k(   17) = (   0.3000000  -0.1000000   0.1000000), wk =   0.0320000
        k(   18) = (  -0.3000000  -0.1000000  -0.1000000), wk =   0.0320000
        k(   19) = (   0.3000000   0.1000000  -0.1000000), wk =   0.0320000
        k(   20) = (  -0.3000000   0.1000000   0.1000000), wk =   0.0320000
        k(   21) = (  -0.1000000   0.3000000   0.1000000), wk =   0.0320000
        k(   22) = (  -0.1000000  -0.3000000  -0.1000000), wk =   0.0320000
        k(   23) = (   0.1000000   0.3000000  -0.1000000), wk =   0.0320000
        k(   24) = (   0.1000000  -0.3000000   0.1000000), wk =   0.0320000
        k(   25) = (  -0.1000000   0.1000000   0.5000000), wk =   0.0320000
        k(   26) = (  -0.5000000  -0.1000000   0.1000000), wk =   0.0320000
        k(   27) = (   0.5000000  -0.1000000  -0.1000000), wk =   0.0320000
        k(   28) = (  -0.1000000  -0.5000000   0.1000000), wk =   0.0320000
        k(   29) = (  -0.1000000   0.5000000  -0.1000000), wk =   0.0320000
        k(   30) = (  -0.1000000  -0.3000000   0.3000000), wk =   0.0320000
        k(   31) = (  -0.1000000   0.3000000  -0.3000000), wk =   0.0320000
        k(   32) = (   0.1000000  -0.3000000  -0.3000000), wk =   0.0320000
        k(   33) = (   0.3000000   0.1000000  -0.3000000), wk =   0.0320000
        k(   34) = (  -0.3000000  -0.1000000  -0.3000000), wk =   0.0320000
        k(   35) = (   0.3000000  -0.1000000   0.3000000), wk =   0.0320000
        k(   36) = (  -0.3000000   0.1000000   0.3000000), wk =   0.0320000
        k(   37) = (   0.3000000  -0.3000000   0.1000000), wk =   0.0320000
        k(   38) = (  -0.3000000  -0.3000000  -0.1000000), wk =   0.0320000
        k(   39) = (   0.3000000   0.3000000  -0.1000000), wk =   0.0320000
        k(   40) = (  -0.3000000   0.3000000   0.1000000), wk =   0.0320000
        k(   41) = (  -0.1000000   0.3000000   0.5000000), wk =   0.0320000
        k(   42) = (   0.3000000   0.1000000   0.5000000), wk =   0.0320000
        k(   43) = (   0.3000000  -0.1000000  -0.5000000), wk =   0.0320000
        k(   44) = (  -0.5000000  -0.3000000   0.1000000), wk =   0.0320000
        k(   45) = (   0.5000000  -0.3000000  -0.1000000), wk =   0.0320000
        k(   46) = (  -0.1000000  -0.5000000   0.3000000), wk =   0.0320000
        k(   47) = (  -0.1000000   0.5000000  -0.3000000), wk =   0.0320000
        k(   48) = (   0.3000000  -0.5000000   0.1000000), wk =   0.0320000
        k(   49) = (   0.3000000   0.5000000  -0.1000000), wk =   0.0320000
        k(   50) = (  -0.5000000   0.1000000   0.3000000), wk =   0.0320000
        k(   51) = (   0.5000000  -0.1000000   0.3000000), wk =   0.0320000
        k(   52) = (  -0.5000000   0.1000000   0.5000000), wk =   0.0320000
        k(   53) = (  -0.5000000   0.5000000   0.1000000), wk =   0.0320000
        k(   54) = (  -0.3000000  -0.3000000   0.3000000), wk =   0.0320000
        k(   55) = (  -0.3000000   0.3000000  -0.3000000), wk =   0.0320000
        k(   56) = (   0.3000000  -0.3000000  -0.3000000), wk =   0.0320000
        k(   57) = (  -0.3000000   0.3000000   0.5000000), wk =   0.0320000
        k(   58) = (  -0.5000000  -0.3000000   0.3000000), wk =   0.0320000
        k(   59) = (   0.5000000  -0.3000000  -0.3000000), wk =   0.0320000
        k(   60) = (  -0.3000000  -0.5000000   0.3000000), wk =   0.0320000
        k(   61) = (  -0.3000000   0.5000000  -0.3000000), wk =   0.0320000
        k(   62) = (  -0.5000000   0.3000000   0.5000000), wk =   0.0320000
        k(   63) = (  -0.5000000   0.5000000   0.3000000), wk =   0.0320000

     Dense  grid:      949 G-vectors     FFT dimensions: (  15,  15,  15)

     Estimated max dynamical RAM per process >       4.71 MB

     Initial potential from superposition of free atoms

     starting charge   11.99084, renormalised to   12.00000
     Starting wfcs are   16 randomized atomic wfcs
     Checking if some PAW data can be deallocated... 

     total cpu time spent up to now is        3.0 secs

     Self-consistent Calculation

     iteration #  1     ecut=    42.00 Ry     beta= 0.10
     Davidson diagonalization with overlap
     ethr =  1.00E-02,  avg # of iterations =  4.7

     total cpu time spent up to now is        5.2 secs

     total energy              =    -141.66766441 Ry
     Harris-Foulkes estimate   =    -141.82243860 Ry
     estimated scf accuracy    <       0.18358845 Ry

     iteration #  2     ecut=    42.00 Ry     beta= 0.10
     Davidson diagonalization with overlap
     ethr =  1.53E-03,  avg # of iterations =  1.1

     total cpu time spent up to now is        6.5 secs

     total energy              =    -141.17409571 Ry
     Harris-Foulkes estimate   =    -141.67095446 Ry
     estimated scf accuracy    <       0.15351397 Ry

     iteration #  3     ecut=    42.00 Ry     beta= 0.10
     Davidson diagonalization with overlap
     ethr =  1.28E-03,  avg # of iterations =  2.0

     total cpu time spent up to now is        8.0 secs

     total energy              =    -141.24463774 Ry
     Harris-Foulkes estimate   =    -141.24345194 Ry
     estimated scf accuracy    <       0.01552324 Ry

     iteration #  4     ecut=    42.00 Ry     beta= 0.10
     Davidson diagonalization with overlap
     ethr =  1.29E-04,  avg # of iterations =  1.3

     total cpu time spent up to now is        9.4 secs

     total energy              =    -141.25278083 Ry
     Harris-Foulkes estimate   =    -141.24496852 Ry
     estimated scf accuracy    <       0.01161001 Ry

     iteration #  5     ecut=    42.00 Ry     beta= 0.10
     Davidson diagonalization with overlap
     ethr =  9.68E-05,  avg # of iterations =  1.1

     total cpu time spent up to now is        9.9 secs

     total energy              =    -141.25077650 Ry
     Harris-Foulkes estimate   =    -141.25488235 Ry
     estimated scf accuracy    <       0.00011404 Ry

     iteration #  6     ecut=    42.00 Ry     beta= 0.10
     Davidson diagonalization with overlap
     ethr =  9.50E-07,  avg # of iterations =  3.3

     total cpu time spent up to now is       10.5 secs

     total energy              =    -141.24983850 Ry
     Harris-Foulkes estimate   =    -141.25094273 Ry
     estimated scf accuracy    <       0.00003773 Ry

     iteration #  7     ecut=    42.00 Ry     beta= 0.10
     Davidson diagonalization with overlap
     ethr =  3.14E-07,  avg # of iterations =  2.2

     total cpu time spent up to now is       11.0 secs

     total energy              =    -141.24925994 Ry
     Harris-Foulkes estimate   =    -141.24986781 Ry
     estimated scf accuracy    <       0.00001173 Ry

     iteration #  8     ecut=    42.00 Ry     beta= 0.10
     Davidson diagonalization with overlap
     ethr =  9.77E-08,  avg # of iterations =  3.3

     total cpu time spent up to now is       11.6 secs

     total energy              =    -141.24928599 Ry
     Harris-Foulkes estimate   =    -141.24929653 Ry
     estimated scf accuracy    <       0.00000314 Ry

     iteration #  9     ecut=    42.00 Ry     beta= 0.10
     Davidson diagonalization with overlap
     ethr =  2.61E-08,  avg # of iterations =  1.0

     total cpu time spent up to now is       12.0 secs

     total energy              =    -141.24920592 Ry
     Harris-Foulkes estimate   =    -141.24928632 Ry
     estimated scf accuracy    <       0.00000527 Ry

     iteration # 10     ecut=    42.00 Ry     beta= 0.10
     Davidson diagonalization with overlap
     ethr =  2.61E-08,  avg # of iterations =  3.0

     total cpu time spent up to now is       12.6 secs

     End of self-consistent calculation

          k = 0.1000 0.1000 0.1000 (   296 PWs)   bands (ev):

    30.3992  41.2136  41.2283  41.2451  52.3528  52.3695  52.3861  54.7120
    54.7209  54.7302

          k = 0.1000 0.1000 0.3000 (   304 PWs)   bands (ev):

    32.8018  39.8191  43.1339  43.1540  52.2164  52.2345  54.4443  54.4557
    54.6194  58.7211

          k = 0.1000 0.1000-0.5000 (   306 PWs)   bands (ev):

    36.5025  36.5434  44.5078  44.5080  52.1622  52.1624  54.2336  54.2337
    59.1415  59.2053

          k = 0.1000 0.3000 0.3000 (   297 PWs)   bands (ev):

    34.9607  41.6731  41.7109  44.5153  50.9195  53.2449  53.2938  55.4908
    58.4216  58.4241

          k = 0.1000 0.3000-0.5000 (   304 PWs)   bands (ev):

    38.4007  38.4430  44.0321  44.0551  51.6295  51.6354  56.4073  56.4387
    56.9963  56.9989

          k = 0.1000-0.5000-0.5000 (   308 PWs)   bands (ev):

    41.3817  41.3899  41.4298  41.4381  53.6125  53.6244  53.6535  53.6655
    61.3264  61.3324

          k = 0.3000 0.3000 0.3000 (   305 PWs)   bands (ev):

    36.8347  43.3717  43.4059  43.4412  49.7660  49.8046  49.8433  56.2833
    61.5621  61.5666

          k = 0.3000 0.3000-0.5000 (   304 PWs)   bands (ev):

    40.0098  40.0536  45.2870  45.2878  47.4900  47.4910  52.3276  52.3279
    63.0280  63.0282

          k = 0.3000-0.5000-0.5000 (   292 PWs)   bands (ev):

    42.7957  42.8055  42.8482  42.8580  48.8831  48.8945  48.9271  48.9388
    69.0178  69.0253

          k =-0.5000-0.5000-0.5000 (   304 PWs)   bands (ev):

    44.9363  44.9377  44.9399  44.9400  45.7494  45.7500  45.7522  45.7537
    75.1896  75.1909

          k =-0.1000-0.1000 0.1000 (   296 PWs)   bands (ev):

    30.3992  41.2167  41.2286  41.2416  52.3563  52.3695  52.3826  54.7139
    54.7210  54.7283

          k =-0.1000 0.1000-0.1000 (   296 PWs)   bands (ev):

    30.3992  41.2195  41.2294  41.2379  52.3597  52.3695  52.3792  54.7158
    54.7210  54.7264

          k = 0.1000-0.1000-0.1000 (   296 PWs)   bands (ev):

    30.3992  41.2181  41.2289  41.2400  52.3579  52.3696  52.3810  54.7148
    54.7210  54.7274

          k =-0.1000-0.1000 0.3000 (   304 PWs)   bands (ev):

    32.8018  39.8192  43.1338  43.1540  52.2165  52.2345  54.4444  54.4557
    54.6191  58.7211

          k =-0.1000 0.1000-0.3000 (   304 PWs)   bands (ev):

    32.8018  39.8192  43.1393  43.1485  52.2213  52.2296  54.4474  54.4526
    54.6193  58.7211

          k = 0.1000-0.1000-0.3000 (   304 PWs)   bands (ev):

    32.8018  39.8191  43.1393  43.1486  52.2213  52.2296  54.4474  54.4526
    54.6194  58.7211

          k = 0.3000-0.1000 0.1000 (   304 PWs)   bands (ev):

    32.8018  39.8191  43.1393  43.1486  52.2212  52.2295  54.4475  54.4528
    54.6193  58.7212

          k =-0.3000-0.1000-0.1000 (   304 PWs)   bands (ev):

    32.8018  39.8191  43.1354  43.1526  52.2178  52.2332  54.4448  54.4544
    54.6202  58.7211

          k = 0.3000 0.1000-0.1000 (   304 PWs)   bands (ev):

    32.8018  39.8191  43.1393  43.1487  52.2211  52.2295  54.4475  54.4528
    54.6194  58.7212

          k =-0.3000 0.1000 0.1000 (   304 PWs)   bands (ev):

    32.8018  39.8191  43.1353  43.1525  52.2179  52.2332  54.4450  54.4546
    54.6197  58.7212

          k =-0.1000 0.3000 0.1000 (   304 PWs)   bands (ev):

    32.8018  39.8190  43.1428  43.1454  52.2244  52.2267  54.4492  54.4507
    54.6193  58.7212

          k =-0.1000-0.3000-0.1000 (   304 PWs)   bands (ev):

    32.8018  39.8190  43.1391  43.1492  52.2209  52.2299  54.4472  54.4528
    54.6194  58.7212

          k = 0.1000 0.3000-0.1000 (   304 PWs)   bands (ev):

    32.8018  39.8190  43.1428  43.1454  52.2243  52.2266  54.4489  54.4505
    54.6198  58.7211

          k = 0.1000-0.3000 0.1000 (   304 PWs)   bands (ev):

    32.8018  39.8190  43.1390  43.1491  52.2210  52.2300  54.4471  54.4528
    54.6193  58.7212

          k =-0.1000 0.1000 0.5000 (   306 PWs)   bands (ev):

    36.5025  36.5434  44.5078  44.5080  52.1621  52.1622  54.2336  54.2337
    59.1416  59.2053

          k =-0.5000-0.1000 0.1000 (   306 PWs)   bands (ev):

    36.5203  36.5255  44.5079  44.5080  52.1619  52.1621  54.2337  54.2339
    59.1699  59.1770

          k = 0.5000-0.1000-0.1000 (   306 PWs)   bands (ev):

    36.5203  36.5255  44.5078  44.5080  52.1624  52.1624  54.2333  54.2334
    59.1701  59.1772

          k =-0.1000-0.5000 0.1000 (   306 PWs)   bands (ev):

    36.5223  36.5235  44.5081  44.5082  52.1622  52.1623  54.2335  54.2336
    59.1723  59.1745

          k =-0.1000 0.5000-0.1000 (   306 PWs)   bands (ev):

    36.5223  36.5235  44.5080  44.5082  52.1621  52.1622  54.2336  54.2337
    59.1723  59.1745

          k =-0.1000-0.3000 0.3000 (   297 PWs)   bands (ev):

    34.9607  41.6818  41.7023  44.5152  50.9197  53.2560  53.2827  55.4908
    58.4221  58.4234

          k =-0.1000 0.3000-0.3000 (   297 PWs)   bands (ev):

    34.9607  41.6818  41.7024  44.5151  50.9197  53.2559  53.2826  55.4908
    58.4221  58.4235

          k = 0.1000-0.3000-0.3000 (   297 PWs)   bands (ev):

    34.9607  41.6731  41.7109  44.5153  50.9196  53.2449  53.2938  55.4908
    58.4214  58.4239

          k = 0.3000 0.1000-0.3000 (   297 PWs)   bands (ev):

    34.9607  41.6892  41.6948  44.5152  50.9194  53.2658  53.2732  55.4909
    58.4226  58.4231

          k =-0.3000-0.1000-0.3000 (   297 PWs)   bands (ev):

    34.9607  41.6809  41.7031  44.5151  50.9196  53.2552  53.2839  55.4908
    58.4219  58.4234

          k = 0.3000-0.1000 0.3000 (   297 PWs)   bands (ev):

    34.9607  41.6810  41.7032  44.5151  50.9195  53.2550  53.2838  55.4910
    58.4220  58.4235

          k =-0.3000 0.1000 0.3000 (   297 PWs)   bands (ev):

    34.9607  41.6892  41.6948  44.5151  50.9196  53.2659  53.2732  55.4908
    58.4222  58.4229

          k = 0.3000-0.3000 0.1000 (   297 PWs)   bands (ev):

    34.9607  41.6819  41.7021  44.5153  50.9194  53.2561  53.2825  55.4909
    58.4222  58.4236

          k =-0.3000-0.3000-0.1000 (   297 PWs)   bands (ev):

    34.9608  41.6699  41.7141  44.5152  50.9197  53.2406  53.2982  55.4907
    58.4213  58.4244

          k = 0.3000 0.3000-0.1000 (   297 PWs)   bands (ev):

    34.9607  41.6700  41.7142  44.5152  50.9196  53.2405  53.2981  55.4909
    58.4213  58.4244

          k =-0.3000 0.3000 0.1000 (   297 PWs)   bands (ev):

    34.9607  41.6819  41.7021  44.5152  50.9197  53.2562  53.2826  55.4904
    58.4221  58.4235

          k =-0.1000 0.3000 0.5000 (   304 PWs)   bands (ev):

    38.4007  38.4430  44.0322  44.0552  51.6294  51.6354  56.4070  56.4385
    56.9966  56.9992

          k = 0.3000 0.1000 0.5000 (   304 PWs)   bands (ev):

    38.4007  38.4430  44.0321  44.0551  51.6296  51.6355  56.4075  56.4390
    56.9961  56.9987

          k = 0.3000-0.1000-0.5000 (   304 PWs)   bands (ev):

    38.4006  38.4430  44.0321  44.0551  51.6295  51.6355  56.4074  56.4388
    56.9962  56.9989

          k =-0.5000-0.3000 0.1000 (   304 PWs)   bands (ev):

    38.4191  38.4244  44.0423  44.0452  51.6317  51.6326  56.4219  56.4252
    56.9972  56.9974

          k = 0.5000-0.3000-0.1000 (   304 PWs)   bands (ev):

    38.4191  38.4244  44.0422  44.0451  51.6321  51.6330  56.4190  56.4229
    56.9986  57.0006

          k =-0.1000-0.5000 0.3000 (   304 PWs)   bands (ev):

    38.4211  38.4224  44.0435  44.0442  51.6324  51.6325  56.4216  56.4234
    56.9974  56.9988

          k =-0.1000 0.5000-0.3000 (   304 PWs)   bands (ev):

    38.4211  38.4224  44.0435  44.0442  51.6323  51.6325  56.4219  56.4236
    56.9971  56.9986

          k = 0.3000-0.5000 0.1000 (   304 PWs)   bands (ev):

    38.4211  38.4224  44.0434  44.0441  51.6322  51.6325  56.4215  56.4237
    56.9971  56.9989

          k = 0.3000 0.5000-0.1000 (   304 PWs)   bands (ev):

    38.4211  38.4224  44.0434  44.0441  51.6324  51.6325  56.4199  56.4235
    56.9972  57.0006

          k =-0.5000 0.1000 0.3000 (   304 PWs)   bands (ev):

    38.4191  38.4244  44.0422  44.0451  51.6322  51.6331  56.4208  56.4243
    56.9975  56.9986

          k = 0.5000-0.1000 0.3000 (   304 PWs)   bands (ev):

    38.4191  38.4244  44.0422  44.0451  51.6319  51.6328  56.4218  56.4251
    56.9972  56.9975

          k =-0.5000 0.1000 0.5000 (   308 PWs)   bands (ev):

    41.3844  41.3937  41.4260  41.4353  53.6233  53.6349  53.6434  53.6548
    61.3305  61.3358

          k =-0.5000 0.5000 0.1000 (   308 PWs)   bands (ev):

    41.3888  41.4002  41.4195  41.4309  53.6078  53.6247  53.6532  53.6700
    61.3261  61.3340

          k =-0.3000-0.3000 0.3000 (   305 PWs)   bands (ev):

    36.8347  43.3790  43.4061  43.4338  49.7740  49.8046  49.8351  56.2835
    61.5631  61.5667

          k =-0.3000 0.3000-0.3000 (   305 PWs)   bands (ev):

    36.8347  43.3859  43.4065  43.4265  49.7820  49.8045  49.8272  56.2835
    61.5638  61.5667

          k = 0.3000-0.3000-0.3000 (   305 PWs)   bands (ev):

    36.8347  43.3822  43.4062  43.4304  49.7779  49.8047  49.8315  56.2831
    61.5634  61.5666

          k =-0.3000 0.3000 0.5000 (   304 PWs)   bands (ev):

    40.0098  40.0536  45.2875  45.2879  47.4900  47.4904  52.3276  52.3279
    63.0281  63.0282

          k =-0.5000-0.3000 0.3000 (   304 PWs)   bands (ev):

    40.0289  40.0344  45.2878  45.2880  47.4899  47.4901  52.3277  52.3280
    63.0281  63.0282

          k = 0.5000-0.3000-0.3000 (   304 PWs)   bands (ev):

    40.0289  40.0344  45.2875  45.2877  47.4903  47.4905  52.3276  52.3279
    63.0280  63.0283

          k =-0.3000-0.5000 0.3000 (   304 PWs)   bands (ev):

    40.0310  40.0323  45.2879  45.2881  47.4900  47.4900  52.3276  52.3279
    63.0281  63.0283

          k =-0.3000 0.5000-0.3000 (   304 PWs)   bands (ev):

    40.0310  40.0323  45.2878  45.2880  47.4900  47.4902  52.3276  52.3279
    63.0280  63.0282

          k =-0.5000 0.3000 0.5000 (   292 PWs)   bands (ev):

    42.7996  42.8102  42.8434  42.8540  48.8914  48.9028  48.9192  48.9305
    69.0202  69.0296

          k =-0.5000 0.5000 0.3000 (   292 PWs)   bands (ev):

    42.8017  42.8153  42.8384  42.8520  48.8811  48.8973  48.9246  48.9406
    69.0204  69.0331

     the Fermi energy is    52.4436 ev

!    total energy              =    -141.24921572 Ry
     Harris-Foulkes estimate   =    -141.24921674 Ry
     estimated scf accuracy    <       0.00000072 Ry

     total all-electron energy =     -1925.820338 Ry

     The total energy is the sum of the following terms:

     one-electron contribution =      58.69556600 Ry
     hartree contribution      =       0.21814952 Ry
     xc contribution           =     -17.29190461 Ry
     ewald contribution        =     -40.85514773 Ry
     one-center paw contrib.   =    -142.01553677 Ry
     smearing contrib. (-TS)   =      -0.00034212 Ry

     convergence has been achieved in  10 iterations

     Forces acting on atoms (cartesian axes, Ry/au):

     atom    1 type  1   force =     0.00208022   -0.00030732    0.01643240
     atom    2 type  1   force =    -0.00401668    0.00544775    0.01637797
     atom    3 type  1   force =     0.00015364   -0.00075691   -0.01777256
     atom    4 type  1   force =     0.00178282   -0.00438352   -0.01503780

     Total force =     0.033963     Total SCF correction =     0.000026


     Computing stress (Cartesian axis) and pressure

          total   stress  (Ry/bohr**3)                   (kbar)     P=59949.58
   0.40753495   0.00000061   0.00000074      59950.45      0.09      0.11
   0.00000061   0.40752420  -0.00000146          0.09  59948.87     -0.22
   0.00000074  -0.00000146   0.40752804          0.11     -0.22  59949.43


     Writing output data file fe_scf_fcc_2.save/

     init_run     :      1.66s CPU      1.70s WALL (       1 calls)
     electrons    :      9.26s CPU      9.60s WALL (       1 calls)
     forces       :      0.04s CPU      0.04s WALL (       1 calls)
     stress       :      0.14s CPU      0.14s WALL (       1 calls)

     Called by init_run:
     wfcinit      :      0.43s CPU      0.45s WALL (       1 calls)
     potinit      :      0.70s CPU      0.72s WALL (       1 calls)
     hinit0       :      0.51s CPU      0.52s WALL (       1 calls)

     Called by electrons:
     c_bands      :      4.38s CPU      4.53s WALL (      10 calls)
     sum_band     :      0.61s CPU      0.62s WALL (      10 calls)
     v_of_rho     :      0.05s CPU      0.04s WALL (      11 calls)
     newd         :      0.04s CPU      0.03s WALL (      11 calls)
     PAW_pot      :      4.88s CPU      5.09s WALL (      11 calls)
     mix_rho      :      0.00s CPU      0.00s WALL (      10 calls)

     Called by c_bands:
     init_us_2    :      0.29s CPU      0.26s WALL (    1449 calls)
     cegterg      :      4.04s CPU      4.14s WALL (     630 calls)

     Called by sum_band:
     sum_band:bec :      0.01s CPU      0.01s WALL (     630 calls)
     addusdens    :      0.02s CPU      0.02s WALL (      10 calls)

     Called by *egterg:
     h_psi        :      2.64s CPU      2.77s WALL (    2142 calls)
     s_psi        :      0.25s CPU      0.26s WALL (    2142 calls)
     g_psi        :      0.05s CPU      0.04s WALL (    1449 calls)
     cdiaghg      :      0.66s CPU      0.69s WALL (    2079 calls)

     Called by h_psi:
     h_psi:pot    :      2.61s CPU      2.74s WALL (    2142 calls)
     h_psi:calbec :      0.25s CPU      0.26s WALL (    2142 calls)
     vloc_psi     :      2.08s CPU      2.20s WALL (    2142 calls)
     add_vuspsi   :      0.26s CPU      0.27s WALL (    2142 calls)

     General routines
     calbec       :      0.34s CPU      0.35s WALL (    3087 calls)
     fft          :      0.01s CPU      0.01s WALL (     147 calls)
     ffts         :      0.00s CPU      0.00s WALL (      10 calls)
     fftw         :      1.99s CPU      2.14s WALL (   41760 calls)

     Parallel routines

     PWSCF        :    12.39s CPU        12.81s WALL


   This run was terminated on:   0:45: 0  30Oct2019            

=------------------------------------------------------------------------------=
   JOB DONE.
=------------------------------------------------------------------------------=
