
     Program PWSCF v.6.3 starts on  1Nov2019 at  0: 7:43 

     This program is part of the open-source Quantum ESPRESSO suite
     for quantum simulation of materials; please cite
         "P. Giannozzi et al., J. Phys.:Condens. Matter 21 395502 (2009);
         "P. Giannozzi et al., J. Phys.:Condens. Matter 29 465901 (2017);
          URL http://www.quantum-espresso.org", 
     in publications or presentations arising from this work. More details at
     http://www.quantum-espresso.org/quote

     Parallel version (MPI), running on     1 processors

     MPI processes distributed on     1 nodes
     Reading input from /cloud/Code/python/py_pwscf_converge/src/example2/wd/runpwscf/file_10241.in
Warning: card &IONS ignored
Warning: card ION_DYNAMICS = 'BFGS', ignored
Warning: card / ignored
Warning: card &CELL ignored
Warning: card CELL_DYNAMICS = 'BFGS', ignored
Warning: card CELL_FACTOR = 2.0, ignored
Warning: card PRESS = 0.0, ignored
Warning: card / ignored

     Current dimensions of program PWSCF are:
     Max number of different atomic species (ntypx) = 10
     Max number of k-points (npk) =  40000
     Max angular momentum in pseudopotentials (lmaxx) =  3
               file Al.pbe-nl-kjpaw_psl.1.0.0.UPF: wavefunction(s)  3S 3P renormalized

     Subspace diagonalization in iterative solution of the eigenvalue problem:
     a serial algorithm will be used


     G-vector sticks info
     --------------------
     sticks:   dense  smooth     PW     G-vecs:    dense   smooth      PW
     Sum         437     437    285                 6979     6979    3575



     bravais-lattice index     =            0
     lattice parameter (alat)  =       7.6356  a.u.
     unit-cell volume          =     445.1737 (a.u.)^3
     number of atoms/cell      =            4
     number of atomic types    =            1
     number of electrons       =        12.00
     number of Kohn-Sham states=           10
     kinetic-energy cutoff     =      50.0000  Ry
     charge density cutoff     =      95.0000  Ry
     convergence threshold     =      1.0E-06
     mixing beta               =       0.1000
     number of iterations used =           10  TF        mixing
     Exchange-correlation      = SLA PW PBX PBC ( 1  4  3  4 0 0)

     celldm(1)=   7.635600  celldm(2)=   0.000000  celldm(3)=   0.000000
     celldm(4)=   0.000000  celldm(5)=   0.000000  celldm(6)=   0.000000

     crystal axes: (cart. coord. in units of alat)
               a(1) = (   1.000000   0.000000   0.000000 )  
               a(2) = (   0.000000   1.000000   0.000000 )  
               a(3) = (   0.000000   0.000000   1.000000 )  

     reciprocal axes: (cart. coord. in units 2 pi/alat)
               b(1) = (  1.000000  0.000000  0.000000 )  
               b(2) = (  0.000000  1.000000  0.000000 )  
               b(3) = (  0.000000  0.000000  1.000000 )  


     PseudoPot. # 1 for Al read from file:
     /opt/pp/Al.pbe-nl-kjpaw_psl.1.0.0.UPF
     MD5 check sum: 1b67f78b73fe58c7924490f171ce8a1e
     Pseudo is Projector augmented-wave + core cor, Zval =  3.0
     Generated using "atomic" code by A. Dal Corso v.6.3
     Shape of augmentation charge: PSQ
     Using radial grid of 1135 points,  4 beta functions with: 
                l(1) =   0
                l(2) =   0
                l(3) =   1
                l(4) =   1
     Q(r) pseudized with 0 coefficients 


     atomic species   valence    mass     pseudopotential
        Al             3.00    26.98200     Al( 1.00)

     No symmetry found



   Cartesian axes

     site n.     atom                  positions (alat units)
         1           Al  tau(   1) = (  -0.0000654   0.0000190   0.0001361  )
         2           Al  tau(   2) = (   0.5001592   0.4996200   0.0001406  )
         3           Al  tau(   3) = (   0.4998143   0.0000610   0.5005910  )
         4           Al  tau(   4) = (  -0.0000400   0.5004374   0.5003674  )

     number of k points=   172  Marzari-Vanderbilt smearing, width (Ry)=  0.0500

     Number of k-points >= 100: set verbosity='high' to print them.

     Dense  grid:     6979 G-vectors     FFT dimensions: (  24,  24,  24)

     Estimated max dynamical RAM per process >      81.71 MB

     Initial potential from superposition of free atoms

     starting charge   11.99084, renormalised to   12.00000
     Starting wfcs are   16 randomized atomic wfcs
     Checking if some PAW data can be deallocated... 

     total cpu time spent up to now is        6.1 secs

     Self-consistent Calculation

     iteration #  1     ecut=    50.00 Ry     beta= 0.10
     Davidson diagonalization with overlap
     ethr =  1.00E-02,  avg # of iterations =  3.4

     Threshold (ethr) on eigenvalues was too large:
     Diagonalizing with lowered threshold

     Davidson diagonalization with overlap
     ethr =  1.95E-04,  avg # of iterations =  3.2

     total cpu time spent up to now is       35.0 secs

     total energy              =    -158.01401417 Ry
     Harris-Foulkes estimate   =    -158.01480741 Ry
     estimated scf accuracy    <       0.02263275 Ry

     iteration #  2     ecut=    50.00 Ry     beta= 0.10
     Davidson diagonalization with overlap
     ethr =  1.89E-04,  avg # of iterations =  1.0

     total cpu time spent up to now is       49.9 secs

     total energy              =    -158.00814097 Ry
     Harris-Foulkes estimate   =    -158.01412149 Ry
     estimated scf accuracy    <       0.01952152 Ry

     iteration #  3     ecut=    50.00 Ry     beta= 0.10
     Davidson diagonalization with overlap
     ethr =  1.63E-04,  avg # of iterations =  1.0

     total cpu time spent up to now is       56.3 secs

     total energy              =    -158.00846866 Ry
     Harris-Foulkes estimate   =    -158.00850757 Ry
     estimated scf accuracy    <       0.00008318 Ry

     iteration #  4     ecut=    50.00 Ry     beta= 0.10
     Davidson diagonalization with overlap
     ethr =  6.93E-07,  avg # of iterations =  4.5

     total cpu time spent up to now is       76.9 secs

     total energy              =    -158.00852639 Ry
     Harris-Foulkes estimate   =    -158.00853983 Ry
     estimated scf accuracy    <       0.00005416 Ry

     iteration #  5     ecut=    50.00 Ry     beta= 0.10
     Davidson diagonalization with overlap
     ethr =  4.51E-07,  avg # of iterations =  1.0

     total cpu time spent up to now is       84.0 secs

     total energy              =    -158.00848631 Ry
     Harris-Foulkes estimate   =    -158.00852793 Ry
     estimated scf accuracy    <       0.00004085 Ry

     iteration #  6     ecut=    50.00 Ry     beta= 0.10
     Davidson diagonalization with overlap
     ethr =  3.40E-07,  avg # of iterations =  2.0

     total cpu time spent up to now is      101.1 secs

     End of self-consistent calculation

     Number of k-points >= 100: set verbosity='high' to print the bands.

     the Fermi energy is     7.9251 ev

!    total energy              =    -158.00849556 Ry
     Harris-Foulkes estimate   =    -158.00849579 Ry
     estimated scf accuracy    <       0.00000093 Ry

     total all-electron energy =     -1942.579618 Ry

     The total energy is the sum of the following terms:

     one-electron contribution =      12.66099576 Ry
     hartree contribution      =       0.02434702 Ry
     xc contribution           =     -10.36368498 Ry
     ewald contribution        =     -21.61650270 Ry
     one-center paw contrib.   =    -138.70918536 Ry
     smearing contrib. (-TS)   =      -0.00446530 Ry

     convergence has been achieved in   6 iterations

     Forces acting on atoms (cartesian axes, Ry/au):

     atom    1 type  1   force =     0.00006312   -0.00004687    0.00023667
     atom    2 type  1   force =    -0.00018601    0.00023141    0.00023635
     atom    3 type  1   force =     0.00006068    0.00005236   -0.00035124
     atom    4 type  1   force =     0.00006221   -0.00023690   -0.00012178

     Total force =     0.000641     Total SCF correction =     0.000239
     SCF correction compared to forces is large: reduce conv_thr to get better values


     Computing stress (Cartesian axis) and pressure

          total   stress  (Ry/bohr**3)                   (kbar)     P=   -0.55
  -0.00000376   0.00000001   0.00000001         -0.55      0.00      0.00
   0.00000001  -0.00000376   0.00000000          0.00     -0.55      0.00
   0.00000001   0.00000000  -0.00000374          0.00      0.00     -0.55


     Writing output data file fe_scf_fcc_2.save/

     init_run     :      5.51s CPU      5.57s WALL (       1 calls)
     electrons    :     93.38s CPU     94.99s WALL (       1 calls)
     forces       :      0.90s CPU      0.92s WALL (       1 calls)
     stress       :      3.30s CPU      3.30s WALL (       1 calls)

     Called by init_run:
     wfcinit      :      4.89s CPU      4.93s WALL (       1 calls)
     potinit      :      0.28s CPU      0.29s WALL (       1 calls)
     hinit0       :      0.33s CPU      0.33s WALL (       1 calls)

     Called by electrons:
     c_bands      :     83.88s CPU     85.39s WALL (       7 calls)
     sum_band     :      7.85s CPU      7.94s WALL (       7 calls)
     v_of_rho     :      0.10s CPU      0.10s WALL (       7 calls)
     newd         :      0.07s CPU      0.08s WALL (       7 calls)
     PAW_pot      :      1.75s CPU      1.77s WALL (       7 calls)
     mix_rho      :      0.01s CPU      0.01s WALL (       7 calls)

     Called by c_bands:
     init_us_2    :      3.54s CPU      3.59s WALL (    2924 calls)
     cegterg      :     77.76s CPU     79.05s WALL (    1204 calls)

     Called by sum_band:
     sum_band:bec :      0.04s CPU      0.02s WALL (    1204 calls)
     addusdens    :      0.06s CPU      0.05s WALL (       7 calls)

     Called by *egterg:
     h_psi        :     61.90s CPU     62.77s WALL (    4146 calls)
     s_psi        :      4.95s CPU      5.07s WALL (    4146 calls)
     g_psi        :      0.65s CPU      0.64s WALL (    2770 calls)
     cdiaghg      :      1.50s CPU      1.62s WALL (    3802 calls)

     Called by h_psi:
     h_psi:pot    :     61.48s CPU     62.30s WALL (    4146 calls)
     h_psi:calbec :      4.89s CPU      4.97s WALL (    4146 calls)
     vloc_psi     :     51.02s CPU     51.73s WALL (    4146 calls)
     add_vuspsi   :      5.52s CPU      5.57s WALL (    4146 calls)

     General routines
     calbec       :      6.44s CPU      6.59s WALL (    6210 calls)
     fft          :      0.06s CPU      0.07s WALL (     104 calls)
     ffts         :      0.00s CPU      0.00s WALL (       7 calls)
     fftw         :     52.45s CPU     53.33s WALL (   80460 calls)

     Parallel routines

     PWSCF        :  1m43.69s CPU     1m45.49s WALL


   This run was terminated on:   0: 9:29   1Nov2019            

=------------------------------------------------------------------------------=
   JOB DONE.
=------------------------------------------------------------------------------=
