
     Program PWSCF v.6.4.1 starts on 24Feb2020 at 16: 0:21 

     This program is part of the open-source Quantum ESPRESSO suite
     for quantum simulation of materials; please cite
         "P. Giannozzi et al., J. Phys.:Condens. Matter 21 395502 (2009);
         "P. Giannozzi et al., J. Phys.:Condens. Matter 29 465901 (2017);
          URL http://www.quantum-espresso.org", 
     in publications or presentations arising from this work. More details at
     http://www.quantum-espresso.org/quote

     Parallel version (MPI), running on     4 processors

     MPI processes distributed on     1 nodes
     R & G space division:  proc/nbgrp/npool/nimage =       4
     Reading input from /cloud/Code/python/py_pwscf_converge/src/example2/wd/runpwscf/file_10224.in
Warning: card &IONS ignored
Warning: card ION_DYNAMICS = 'BFGS', ignored
Warning: card / ignored
Warning: card &CELL ignored
Warning: card CELL_DYNAMICS = 'BFGS', ignored
Warning: card CELL_FACTOR = 2.0, ignored
Warning: card PRESS = 0.0, ignored
Warning: card / ignored

     Current dimensions of program PWSCF are:
     Max number of different atomic species (ntypx) = 10
     Max number of k-points (npk) =  40000
     Max angular momentum in pseudopotentials (lmaxx) =  3
               file Al.pbe-nl-kjpaw_psl.1.0.0.UPF: wavefunction(s)  3S 3P renormalized

     Subspace diagonalization in iterative solution of the eigenvalue problem:
     a serial algorithm will be used


     Parallelization info
     --------------------
     sticks:   dense  smooth     PW     G-vecs:    dense   smooth      PW
     Min         115     115     70                 1873     1873     893
     Max         117     117     72                 1875     1875     894
     Sum         465     465    285                 7497     7497    3575



     bravais-lattice index     =            0
     lattice parameter (alat)  =       7.6356  a.u.
     unit-cell volume          =     445.1737 (a.u.)^3
     number of atoms/cell      =            4
     number of atomic types    =            1
     number of electrons       =        12.00
     number of Kohn-Sham states=           10
     kinetic-energy cutoff     =      50.0000  Ry
     charge density cutoff     =     100.0000  Ry
     convergence threshold     =      1.0E-06
     mixing beta               =       0.1000
     number of iterations used =           10  TF        mixing
     Exchange-correlation      = SLA PW PBX PBC ( 1  4  3  4 0 0)

     celldm(1)=   7.635600  celldm(2)=   0.000000  celldm(3)=   0.000000
     celldm(4)=   0.000000  celldm(5)=   0.000000  celldm(6)=   0.000000

     crystal axes: (cart. coord. in units of alat)
               a(1) = (   1.000000   0.000000   0.000000 )  
               a(2) = (   0.000000   1.000000   0.000000 )  
               a(3) = (   0.000000   0.000000   1.000000 )  

     reciprocal axes: (cart. coord. in units 2 pi/alat)
               b(1) = (  1.000000  0.000000  0.000000 )  
               b(2) = (  0.000000  1.000000  0.000000 )  
               b(3) = (  0.000000  0.000000  1.000000 )  


     PseudoPot. # 1 for Al read from file:
     /opt/pp/Al.pbe-nl-kjpaw_psl.1.0.0.UPF
     MD5 check sum: 1b67f78b73fe58c7924490f171ce8a1e
     Pseudo is Projector augmented-wave + core cor, Zval =  3.0
     Generated using "atomic" code by A. Dal Corso v.6.3
     Shape of augmentation charge: PSQ
     Using radial grid of 1135 points,  4 beta functions with: 
                l(1) =   0
                l(2) =   0
                l(3) =   1
                l(4) =   1
     Q(r) pseudized with 0 coefficients 


     atomic species   valence    mass     pseudopotential
        Al             3.00    26.98200     Al( 1.00)

     No symmetry found



   Cartesian axes

     site n.     atom                  positions (alat units)
         1           Al  tau(   1) = (  -0.0000654   0.0000190   0.0001361  )
         2           Al  tau(   2) = (   0.5001592   0.4996200   0.0001406  )
         3           Al  tau(   3) = (   0.4998143   0.0000610   0.5005910  )
         4           Al  tau(   4) = (  -0.0000400   0.5004374   0.5003674  )

     number of k points=    63  Marzari-Vanderbilt smearing, width (Ry)=  0.0080
                       cart. coord. in units 2pi/alat
        k(    1) = (   0.1000000   0.1000000   0.1000000), wk =   0.0320000
        k(    2) = (   0.1000000   0.1000000   0.3000000), wk =   0.0320000
        k(    3) = (   0.1000000   0.1000000  -0.5000000), wk =   0.0320000
        k(    4) = (   0.1000000   0.3000000   0.3000000), wk =   0.0320000
        k(    5) = (   0.1000000   0.3000000  -0.5000000), wk =   0.0320000
        k(    6) = (   0.1000000  -0.5000000  -0.5000000), wk =   0.0320000
        k(    7) = (   0.3000000   0.3000000   0.3000000), wk =   0.0320000
        k(    8) = (   0.3000000   0.3000000  -0.5000000), wk =   0.0320000
        k(    9) = (   0.3000000  -0.5000000  -0.5000000), wk =   0.0320000
        k(   10) = (  -0.5000000  -0.5000000  -0.5000000), wk =   0.0160000
        k(   11) = (  -0.1000000  -0.1000000   0.1000000), wk =   0.0320000
        k(   12) = (  -0.1000000   0.1000000  -0.1000000), wk =   0.0320000
        k(   13) = (   0.1000000  -0.1000000  -0.1000000), wk =   0.0320000
        k(   14) = (  -0.1000000  -0.1000000   0.3000000), wk =   0.0320000
        k(   15) = (  -0.1000000   0.1000000  -0.3000000), wk =   0.0320000
        k(   16) = (   0.1000000  -0.1000000  -0.3000000), wk =   0.0320000
        k(   17) = (   0.3000000  -0.1000000   0.1000000), wk =   0.0320000
        k(   18) = (  -0.3000000  -0.1000000  -0.1000000), wk =   0.0320000
        k(   19) = (   0.3000000   0.1000000  -0.1000000), wk =   0.0320000
        k(   20) = (  -0.3000000   0.1000000   0.1000000), wk =   0.0320000
        k(   21) = (  -0.1000000   0.3000000   0.1000000), wk =   0.0320000
        k(   22) = (  -0.1000000  -0.3000000  -0.1000000), wk =   0.0320000
        k(   23) = (   0.1000000   0.3000000  -0.1000000), wk =   0.0320000
        k(   24) = (   0.1000000  -0.3000000   0.1000000), wk =   0.0320000
        k(   25) = (  -0.1000000   0.1000000   0.5000000), wk =   0.0320000
        k(   26) = (  -0.5000000  -0.1000000   0.1000000), wk =   0.0320000
        k(   27) = (   0.5000000  -0.1000000  -0.1000000), wk =   0.0320000
        k(   28) = (  -0.1000000  -0.5000000   0.1000000), wk =   0.0320000
        k(   29) = (  -0.1000000   0.5000000  -0.1000000), wk =   0.0320000
        k(   30) = (  -0.1000000  -0.3000000   0.3000000), wk =   0.0320000
        k(   31) = (  -0.1000000   0.3000000  -0.3000000), wk =   0.0320000
        k(   32) = (   0.1000000  -0.3000000  -0.3000000), wk =   0.0320000
        k(   33) = (   0.3000000   0.1000000  -0.3000000), wk =   0.0320000
        k(   34) = (  -0.3000000  -0.1000000  -0.3000000), wk =   0.0320000
        k(   35) = (   0.3000000  -0.1000000   0.3000000), wk =   0.0320000
        k(   36) = (  -0.3000000   0.1000000   0.3000000), wk =   0.0320000
        k(   37) = (   0.3000000  -0.3000000   0.1000000), wk =   0.0320000
        k(   38) = (  -0.3000000  -0.3000000  -0.1000000), wk =   0.0320000
        k(   39) = (   0.3000000   0.3000000  -0.1000000), wk =   0.0320000
        k(   40) = (  -0.3000000   0.3000000   0.1000000), wk =   0.0320000
        k(   41) = (  -0.1000000   0.3000000   0.5000000), wk =   0.0320000
        k(   42) = (   0.3000000   0.1000000   0.5000000), wk =   0.0320000
        k(   43) = (   0.3000000  -0.1000000  -0.5000000), wk =   0.0320000
        k(   44) = (  -0.5000000  -0.3000000   0.1000000), wk =   0.0320000
        k(   45) = (   0.5000000  -0.3000000  -0.1000000), wk =   0.0320000
        k(   46) = (  -0.1000000  -0.5000000   0.3000000), wk =   0.0320000
        k(   47) = (  -0.1000000   0.5000000  -0.3000000), wk =   0.0320000
        k(   48) = (   0.3000000  -0.5000000   0.1000000), wk =   0.0320000
        k(   49) = (   0.3000000   0.5000000  -0.1000000), wk =   0.0320000
        k(   50) = (  -0.5000000   0.1000000   0.3000000), wk =   0.0320000
        k(   51) = (   0.5000000  -0.1000000   0.3000000), wk =   0.0320000
        k(   52) = (  -0.5000000   0.1000000   0.5000000), wk =   0.0320000
        k(   53) = (  -0.5000000   0.5000000   0.1000000), wk =   0.0320000
        k(   54) = (  -0.3000000  -0.3000000   0.3000000), wk =   0.0320000
        k(   55) = (  -0.3000000   0.3000000  -0.3000000), wk =   0.0320000
        k(   56) = (   0.3000000  -0.3000000  -0.3000000), wk =   0.0320000
        k(   57) = (  -0.3000000   0.3000000   0.5000000), wk =   0.0320000
        k(   58) = (  -0.5000000  -0.3000000   0.3000000), wk =   0.0320000
        k(   59) = (   0.5000000  -0.3000000  -0.3000000), wk =   0.0320000
        k(   60) = (  -0.3000000  -0.5000000   0.3000000), wk =   0.0320000
        k(   61) = (  -0.3000000   0.5000000  -0.3000000), wk =   0.0320000
        k(   62) = (  -0.5000000   0.3000000   0.5000000), wk =   0.0320000
        k(   63) = (  -0.5000000   0.5000000   0.3000000), wk =   0.0320000

     Dense  grid:     7497 G-vectors     FFT dimensions: (  25,  25,  25)

     Estimated max dynamical RAM per process >       9.81 MB

     Estimated total dynamical RAM >      39.25 MB

     Initial potential from superposition of free atoms

     starting charge   11.99084, renormalised to   12.00000
     Starting wfcs are   16 randomized atomic wfcs
     Checking if some PAW data can be deallocated... 

     total cpu time spent up to now is        1.1 secs

     Self-consistent Calculation

     iteration #  1     ecut=    50.00 Ry     beta= 0.10
     Davidson diagonalization with overlap
     ethr =  1.00E-02,  avg # of iterations =  3.1

     Threshold (ethr) on eigenvalues was too large:
     Diagonalizing with lowered threshold

     Davidson diagonalization with overlap
     ethr =  1.98E-04,  avg # of iterations =  3.6

     total cpu time spent up to now is        3.0 secs

     total energy              =    -158.00420800 Ry
     Harris-Foulkes estimate   =    -158.00503339 Ry
     estimated scf accuracy    <       0.02306134 Ry

     iteration #  2     ecut=    50.00 Ry     beta= 0.10
     Davidson diagonalization with overlap
     ethr =  1.92E-04,  avg # of iterations =  1.0

     total cpu time spent up to now is        3.7 secs

     total energy              =    -157.99812137 Ry
     Harris-Foulkes estimate   =    -158.00431989 Ry
     estimated scf accuracy    <       0.01988890 Ry

     iteration #  3     ecut=    50.00 Ry     beta= 0.10
     Davidson diagonalization with overlap
     ethr =  1.66E-04,  avg # of iterations =  1.0

     total cpu time spent up to now is        4.4 secs

     total energy              =    -157.99846691 Ry
     Harris-Foulkes estimate   =    -157.99850809 Ry
     estimated scf accuracy    <       0.00008754 Ry

     iteration #  4     ecut=    50.00 Ry     beta= 0.10
     Davidson diagonalization with overlap
     ethr =  7.30E-07,  avg # of iterations =  4.5

     total cpu time spent up to now is        5.7 secs

     total energy              =    -157.99853022 Ry
     Harris-Foulkes estimate   =    -157.99854349 Ry
     estimated scf accuracy    <       0.00005609 Ry

     iteration #  5     ecut=    50.00 Ry     beta= 0.10
     Davidson diagonalization with overlap
     ethr =  4.67E-07,  avg # of iterations =  1.0

     total cpu time spent up to now is        6.3 secs

     total energy              =    -157.99848681 Ry
     Harris-Foulkes estimate   =    -157.99853154 Ry
     estimated scf accuracy    <       0.00004146 Ry

     iteration #  6     ecut=    50.00 Ry     beta= 0.10
     Davidson diagonalization with overlap
     ethr =  3.45E-07,  avg # of iterations =  2.0

     total cpu time spent up to now is        7.2 secs

     total energy              =    -157.99849703 Ry
     Harris-Foulkes estimate   =    -157.99849704 Ry
     estimated scf accuracy    <       0.00000102 Ry

     iteration #  7     ecut=    50.00 Ry     beta= 0.10
     Davidson diagonalization with overlap
     ethr =  8.49E-09,  avg # of iterations =  1.5

     total cpu time spent up to now is        7.9 secs

     End of self-consistent calculation

          k = 0.1000 0.1000 0.1000 (  2647 PWs)   bands (ev):

    -2.9621   4.0410   4.0431   4.0453   7.7410   7.7434   7.7458  10.7597
    10.7623  10.7651

          k = 0.1000 0.1000 0.3000 (  2672 PWs)   bands (ev):

    -2.2396   1.3151   4.7242   4.7272   8.0295   8.0352   8.5362   8.5365
    11.3556  11.7955

          k = 0.1000 0.1000-0.5000 (  2658 PWs)   bands (ev):

    -0.8092  -0.8025   5.9690   5.9698   6.2099   6.2108   9.5126   9.5131
    10.1730  10.1742

          k = 0.1000 0.3000 0.3000 (  2669 PWs)   bands (ev):

    -1.5209   2.0147   2.0175   5.3099   5.5753   8.7940   8.7979   9.1495
    12.1851  12.1905

          k = 0.1000 0.3000-0.5000 (  2656 PWs)   bands (ev):

    -0.0975  -0.0908   3.4034   3.4103   6.7759   6.7832  10.1391  10.1469
    10.4843  10.4906

          k = 0.1000-0.5000-0.5000 (  2668 PWs)   bands (ev):

     1.3149   1.3153   1.3217   1.3228   8.1274   8.1279   8.1351   8.1364
    11.8261  11.8307

          k = 0.3000 0.3000 0.3000 (  2653 PWs)   bands (ev):

    -0.8056   2.7110   2.7132   2.7155   6.1647   6.1672   6.1696   9.5495
    13.0690  13.0720

          k = 0.3000 0.3000-0.5000 (  2644 PWs)   bands (ev):

     0.6109   0.6176   3.9820   3.9827   4.2305   4.2315   7.5256   7.5328
    14.5678  14.5689

          k = 0.3000-0.5000-0.5000 (  2660 PWs)   bands (ev):

     2.0162   2.0165   2.0229   2.0240   5.4854   5.4857   5.4924   5.4935
    15.6212  15.6259

          k =-0.5000-0.5000-0.5000 (  2608 PWs)   bands (ev):

     3.3105   3.3108   3.3110   3.3116   3.5267   3.5279   3.5281   3.5285
    19.3098  19.3105

          k =-0.1000-0.1000 0.1000 (  2647 PWs)   bands (ev):

    -2.9621   4.0414   4.0432   4.0448   7.7414   7.7434   7.7453  10.7602
    10.7624  10.7645

          k =-0.1000 0.1000-0.1000 (  2647 PWs)   bands (ev):

    -2.9621   4.0420   4.0431   4.0443   7.7420   7.7434   7.7448  10.7608
    10.7623  10.7639

          k = 0.1000-0.1000-0.1000 (  2647 PWs)   bands (ev):

    -2.9621   4.0416   4.0432   4.0446   7.7416   7.7434   7.7451  10.7604
    10.7624  10.7643

          k =-0.1000-0.1000 0.3000 (  2672 PWs)   bands (ev):

    -2.2396   1.3151   4.7242   4.7272   8.0295   8.0352   8.5362   8.5365
    11.3556  11.7954

          k =-0.1000 0.1000-0.3000 (  2672 PWs)   bands (ev):

    -2.2396   1.3151   4.7250   4.7264   8.0310   8.0337   8.5362   8.5364
    11.3556  11.7955

          k = 0.1000-0.1000-0.3000 (  2672 PWs)   bands (ev):

    -2.2396   1.3151   4.7250   4.7264   8.0310   8.0336   8.5362   8.5364
    11.3556  11.7956

          k = 0.3000-0.1000 0.1000 (  2672 PWs)   bands (ev):

    -2.2396   1.3151   4.7249   4.7264   8.0310   8.0337   8.5362   8.5364
    11.3556  11.7955

          k =-0.3000-0.1000-0.1000 (  2672 PWs)   bands (ev):

    -2.2396   1.3151   4.7243   4.7270   8.0299   8.0348   8.5361   8.5365
    11.3556  11.7953

          k = 0.3000 0.1000-0.1000 (  2672 PWs)   bands (ev):

    -2.2396   1.3151   4.7249   4.7264   8.0310   8.0337   8.5362   8.5364
    11.3556  11.7957

          k =-0.3000 0.1000 0.1000 (  2672 PWs)   bands (ev):

    -2.2396   1.3151   4.7243   4.7270   8.0299   8.0348   8.5362   8.5365
    11.3556  11.7954

          k =-0.1000 0.3000 0.1000 (  2672 PWs)   bands (ev):

    -2.2396   1.3151   4.7254   4.7259   8.0319   8.0327   8.5362   8.5364
    11.3556  11.7951

          k =-0.1000-0.3000-0.1000 (  2672 PWs)   bands (ev):

    -2.2396   1.3151   4.7250   4.7263   8.0310   8.0337   8.5363   8.5364
    11.3556  11.7953

          k = 0.1000 0.3000-0.1000 (  2672 PWs)   bands (ev):

    -2.2396   1.3151   4.7254   4.7259   8.0319   8.0328   8.5362   8.5364
    11.3556  11.7950

          k = 0.1000-0.3000 0.1000 (  2672 PWs)   bands (ev):

    -2.2396   1.3151   4.7250   4.7263   8.0310   8.0337   8.5363   8.5364
    11.3556  11.7949

          k =-0.1000 0.1000 0.5000 (  2658 PWs)   bands (ev):

    -0.8092  -0.8025   5.9691   5.9697   6.2098   6.2108   9.5127   9.5131
    10.1730  10.1742

          k =-0.5000-0.1000 0.1000 (  2658 PWs)   bands (ev):

    -0.8063  -0.8054   5.9692   5.9697   6.2099   6.2107   9.5127   9.5131
    10.1731  10.1740

          k = 0.5000-0.1000-0.1000 (  2658 PWs)   bands (ev):

    -0.8063  -0.8054   5.9692   5.9697   6.2099   6.2107   9.5127   9.5131
    10.1731  10.1740

          k =-0.1000-0.5000 0.1000 (  2658 PWs)   bands (ev):

    -0.8061  -0.8056   5.9694   5.9695   6.2100   6.2105   9.5128   9.5130
    10.1733  10.1738

          k =-0.1000 0.5000-0.1000 (  2658 PWs)   bands (ev):

    -0.8061  -0.8056   5.9693   5.9696   6.2101   6.2104   9.5128   9.5130
    10.1734  10.1738

          k =-0.1000-0.3000 0.3000 (  2669 PWs)   bands (ev):

    -1.5209   2.0153   2.0169   5.3099   5.5753   8.7948   8.7971   9.1495
    12.1863  12.1901

          k =-0.1000 0.3000-0.3000 (  2669 PWs)   bands (ev):

    -1.5209   2.0153   2.0169   5.3099   5.5753   8.7948   8.7971   9.1495
    12.1867  12.1900

          k = 0.1000-0.3000-0.3000 (  2669 PWs)   bands (ev):

    -1.5209   2.0147   2.0175   5.3099   5.5753   8.7939   8.7979   9.1495
    12.1852  12.1914

          k = 0.3000 0.1000-0.3000 (  2669 PWs)   bands (ev):

    -1.5209   2.0158   2.0163   5.3099   5.5753   8.7956   8.7963   9.1495
    12.1876  12.1889

          k =-0.3000-0.1000-0.3000 (  2669 PWs)   bands (ev):

    -1.5209   2.0154   2.0168   5.3099   5.5753   8.7949   8.7970   9.1495
    12.1859  12.1899

          k = 0.3000-0.1000 0.3000 (  2669 PWs)   bands (ev):

    -1.5209   2.0154   2.0168   5.3099   5.5753   8.7949   8.7970   9.1495
    12.1866  12.1898

          k =-0.3000 0.1000 0.3000 (  2669 PWs)   bands (ev):

    -1.5209   2.0158   2.0163   5.3099   5.5753   8.7956   8.7963   9.1495
    12.1878  12.1889

          k = 0.3000-0.3000 0.1000 (  2669 PWs)   bands (ev):

    -1.5209   2.0153   2.0168   5.3099   5.5753   8.7949   8.7970   9.1495
    12.1866  12.1887

          k =-0.3000-0.3000-0.1000 (  2669 PWs)   bands (ev):

    -1.5209   2.0145   2.0177   5.3099   5.5753   8.7936   8.7983   9.1495
    12.1848  12.1912

          k = 0.3000 0.3000-0.1000 (  2669 PWs)   bands (ev):

    -1.5209   2.0145   2.0177   5.3099   5.5753   8.7936   8.7983   9.1495
    12.1848  12.1918

          k =-0.3000 0.3000 0.1000 (  2669 PWs)   bands (ev):

    -1.5209   2.0153   2.0168   5.3099   5.5753   8.7949   8.7970   9.1495
    12.1859  12.1901

          k =-0.1000 0.3000 0.5000 (  2656 PWs)   bands (ev):

    -0.0975  -0.0908   3.4034   3.4103   6.7759   6.7832  10.1391  10.1469
    10.4843  10.4906

          k = 0.3000 0.1000 0.5000 (  2656 PWs)   bands (ev):

    -0.0975  -0.0908   3.4034   3.4103   6.7759   6.7832  10.1391  10.1469
    10.4843  10.4906

          k = 0.3000-0.1000-0.5000 (  2656 PWs)   bands (ev):

    -0.0975  -0.0908   3.4034   3.4103   6.7759   6.7832  10.1391  10.1468
    10.4843  10.4906

          k =-0.5000-0.3000 0.1000 (  2656 PWs)   bands (ev):

    -0.0946  -0.0937   3.4064   3.4073   6.7791   6.7801  10.1425  10.1435
    10.4870  10.4879

          k = 0.5000-0.3000-0.1000 (  2656 PWs)   bands (ev):

    -0.0946  -0.0937   3.4064   3.4073   6.7791   6.7801  10.1424  10.1435
    10.4870  10.4879

          k =-0.1000-0.5000 0.3000 (  2656 PWs)   bands (ev):

    -0.0944  -0.0939   3.4066   3.4071   6.7793   6.7798  10.1427  10.1432
    10.4872  10.4877

          k =-0.1000 0.5000-0.3000 (  2656 PWs)   bands (ev):

    -0.0944  -0.0939   3.4066   3.4071   6.7793   6.7798  10.1428  10.1432
    10.4872  10.4877

          k = 0.3000-0.5000 0.1000 (  2656 PWs)   bands (ev):

    -0.0944  -0.0939   3.4066   3.4071   6.7793   6.7798  10.1428  10.1432
    10.4872  10.4877

          k = 0.3000 0.5000-0.1000 (  2656 PWs)   bands (ev):

    -0.0944  -0.0939   3.4066   3.4071   6.7793   6.7798  10.1427  10.1432
    10.4872  10.4877

          k =-0.5000 0.1000 0.3000 (  2656 PWs)   bands (ev):

    -0.0946  -0.0937   3.4064   3.4073   6.7791   6.7801  10.1424  10.1435
    10.4870  10.4879

          k = 0.5000-0.1000 0.3000 (  2656 PWs)   bands (ev):

    -0.0946  -0.0937   3.4064   3.4073   6.7791   6.7801  10.1425  10.1435
    10.4870  10.4879

          k =-0.5000 0.1000 0.5000 (  2668 PWs)   bands (ev):

     1.3149   1.3156   1.3214   1.3227   8.1275   8.1282   8.1347   8.1363
    11.8293  11.8321

          k =-0.5000 0.5000 0.1000 (  2668 PWs)   bands (ev):

     1.3169   1.3179   1.3193   1.3205   8.1294   8.1307   8.1326   8.1341
    11.8286  11.8294

          k =-0.3000-0.3000 0.3000 (  2653 PWs)   bands (ev):

    -0.8056   2.7114   2.7133   2.7150   6.1652   6.1672   6.1691   9.5495
    13.0696  13.0716

          k =-0.3000 0.3000-0.3000 (  2653 PWs)   bands (ev):

    -0.8056   2.7120   2.7132   2.7145   6.1658   6.1671   6.1686   9.5495
    13.0705  13.0722

          k = 0.3000-0.3000-0.3000 (  2653 PWs)   bands (ev):

    -0.8056   2.7116   2.7133   2.7148   6.1654   6.1672   6.1689   9.5495
    13.0693  13.0721

          k =-0.3000 0.3000 0.5000 (  2644 PWs)   bands (ev):

     0.6109   0.6176   3.9821   3.9827   4.2305   4.2315   7.5256   7.5328
    14.5676  14.5686

          k =-0.5000-0.3000 0.3000 (  2644 PWs)   bands (ev):

     0.6137   0.6147   3.9822   3.9827   4.2306   4.2314   7.5287   7.5297
    14.1694  14.5689

          k = 0.5000-0.3000-0.3000 (  2644 PWs)   bands (ev):

     0.6137   0.6147   3.9822   3.9827   4.2306   4.2314   7.5287   7.5297
    14.5673  14.5687

          k =-0.3000-0.5000 0.3000 (  2644 PWs)   bands (ev):

     0.6140   0.6144   3.9824   3.9825   4.2307   4.2312   7.5290   7.5295
    14.5679  14.5685

          k =-0.3000 0.5000-0.3000 (  2644 PWs)   bands (ev):

     0.6140   0.6144   3.9823   3.9826   4.2308   4.2311   7.5290   7.5295
    14.1692  14.5685

          k =-0.5000 0.3000 0.5000 (  2660 PWs)   bands (ev):

     2.0162   2.0168   2.0227   2.0240   5.4854   5.4861   5.4921   5.4935
    15.6194  15.6241

          k =-0.5000 0.5000 0.3000 (  2660 PWs)   bands (ev):

     2.0182   2.0192   2.0205   2.0218   5.4874   5.4885   5.4899   5.4912
    15.6229  15.6241

     the Fermi energy is     8.0592 ev

!    total energy              =    -157.99849698 Ry
     Harris-Foulkes estimate   =    -157.99849709 Ry
     estimated scf accuracy    <       0.00000097 Ry

     total all-electron energy =     -1942.569619 Ry

     The total energy is the sum of the following terms:

     one-electron contribution =      12.66431118 Ry
     hartree contribution      =       0.02365522 Ry
     xc contribution           =     -10.36202403 Ry
     ewald contribution        =     -21.61650270 Ry
     one-center paw contrib.   =    -138.70679087 Ry
     smearing contrib. (-TS)   =      -0.00114578 Ry

     convergence has been achieved in   7 iterations

     Forces acting on atoms (cartesian axes, Ry/au):

     atom    1 type  1   force =     0.00005535   -0.00005226    0.00015642
     atom    2 type  1   force =    -0.00011163    0.00004724    0.00017147
     atom    3 type  1   force =    -0.00000742    0.00007128   -0.00024068
     atom    4 type  1   force =     0.00006371   -0.00006627   -0.00008721

     Total force =     0.000392     Total SCF correction =     0.000189
     SCF correction compared to forces is large: reduce conv_thr to get better values


     Computing stress (Cartesian axis) and pressure

          total   stress  (Ry/bohr**3)                   (kbar)     P=   -3.32
  -0.00002256  -0.00000000  -0.00000000         -3.32     -0.00     -0.00
  -0.00000000  -0.00002251   0.00000002         -0.00     -3.31      0.00
  -0.00000000   0.00000002  -0.00002262         -0.00      0.00     -3.33


     Writing output data file fe_scf_fcc_2.save/

     init_run     :      0.56s CPU      0.61s WALL (       1 calls)
     electrons    :      6.33s CPU      6.83s WALL (       1 calls)
     forces       :      0.16s CPU      0.16s WALL (       1 calls)
     stress       :      0.29s CPU      0.29s WALL (       1 calls)

     Called by init_run:
     wfcinit      :      0.46s CPU      0.50s WALL (       1 calls)
     potinit      :      0.05s CPU      0.05s WALL (       1 calls)
     hinit0       :      0.05s CPU      0.05s WALL (       1 calls)

     Called by electrons:
     c_bands      :      5.30s CPU      5.71s WALL (       8 calls)
     sum_band     :      0.69s CPU      0.76s WALL (       8 calls)
     v_of_rho     :      0.02s CPU      0.02s WALL (       8 calls)
     newd         :      0.01s CPU      0.01s WALL (       8 calls)
     PAW_pot      :      0.35s CPU      0.37s WALL (       8 calls)
     mix_rho      :      0.00s CPU      0.00s WALL (       8 calls)

     Called by c_bands:
     init_us_2    :      0.18s CPU      0.19s WALL (    1197 calls)
     cegterg      :      4.98s CPU      5.37s WALL (     504 calls)

     Called by sum_band:
     sum_band:bec :      0.00s CPU      0.00s WALL (     504 calls)
     addusdens    :      0.01s CPU      0.01s WALL (       8 calls)

     Called by *egterg:
     h_psi        :      3.36s CPU      3.64s WALL (    1678 calls)
     s_psi        :      0.45s CPU      0.49s WALL (    1678 calls)
     g_psi        :      0.03s CPU      0.03s WALL (    1111 calls)
     cdiaghg      :      0.27s CPU      0.28s WALL (    1552 calls)

     Called by h_psi:
     h_psi:pot    :      3.34s CPU      3.61s WALL (    1678 calls)
     h_psi:calbec :      0.65s CPU      0.71s WALL (    1678 calls)
     vloc_psi     :      2.23s CPU      2.41s WALL (    1678 calls)
     add_vuspsi   :      0.45s CPU      0.49s WALL (    1678 calls)

     General routines
     calbec       :      1.02s CPU      1.11s WALL (    2497 calls)
     fft          :      0.01s CPU      0.01s WALL (     114 calls)
     ffts         :      0.00s CPU      0.00s WALL (       8 calls)
     fftw         :      2.40s CPU      2.60s WALL (   32614 calls)

     Parallel routines
     fft_scatt_xy :      0.27s CPU      0.29s WALL (   32736 calls)
     fft_scatt_yz :      1.19s CPU      1.29s WALL (   32736 calls)

     PWSCF        :      7.80s CPU      8.43s WALL


   This run was terminated on:  16: 0:30  24Feb2020            

=------------------------------------------------------------------------------=
   JOB DONE.
=------------------------------------------------------------------------------=
