
     Program PWSCF v.6.3 starts on 30Oct2019 at  0:43:55 

     This program is part of the open-source Quantum ESPRESSO suite
     for quantum simulation of materials; please cite
         "P. Giannozzi et al., J. Phys.:Condens. Matter 21 395502 (2009);
         "P. Giannozzi et al., J. Phys.:Condens. Matter 29 465901 (2017);
          URL http://www.quantum-espresso.org", 
     in publications or presentations arising from this work. More details at
     http://www.quantum-espresso.org/quote

     Parallel version (MPI), running on     1 processors

     MPI processes distributed on     1 nodes
     Reading input from /cloud/Code/python/py_pwscf_converge/src/example2/wd/runpwscf/file_10266.in
Warning: card &IONS ignored
Warning: card ION_DYNAMICS = 'BFGS', ignored
Warning: card / ignored
Warning: card &CELL ignored
Warning: card CELL_DYNAMICS = 'BFGS', ignored
Warning: card CELL_FACTOR = 2.0, ignored
Warning: card PRESS = 0.0, ignored
Warning: card / ignored

     Current dimensions of program PWSCF are:
     Max number of different atomic species (ntypx) = 10
     Max number of k-points (npk) =  40000
     Max angular momentum in pseudopotentials (lmaxx) =  3
               file Al.pbe-nl-kjpaw_psl.1.0.0.UPF: wavefunction(s)  3S 3P renormalized

     Subspace diagonalization in iterative solution of the eigenvalue problem:
     a serial algorithm will be used


     G-vector sticks info
     --------------------
     sticks:   dense  smooth     PW     G-vecs:    dense   smooth      PW
     Sum         121     121     81                  949      949     515



     bravais-lattice index     =            0
     lattice parameter (alat)  =       4.0400  a.u.
     unit-cell volume          =      65.9393 (a.u.)^3
     number of atoms/cell      =            4
     number of atomic types    =            1
     number of electrons       =        12.00
     number of Kohn-Sham states=           10
     kinetic-energy cutoff     =      42.0000  Ry
     charge density cutoff     =      90.0000  Ry
     convergence threshold     =      1.0E-06
     mixing beta               =       0.1000
     number of iterations used =           10  TF        mixing
     Exchange-correlation      = SLA PW PBX PBC ( 1  4  3  4 0 0)

     celldm(1)=   4.040000  celldm(2)=   0.000000  celldm(3)=   0.000000
     celldm(4)=   0.000000  celldm(5)=   0.000000  celldm(6)=   0.000000

     crystal axes: (cart. coord. in units of alat)
               a(1) = (   1.000000   0.000000   0.000000 )  
               a(2) = (   0.000000   1.000000   0.000000 )  
               a(3) = (   0.000000   0.000000   1.000000 )  

     reciprocal axes: (cart. coord. in units 2 pi/alat)
               b(1) = (  1.000000  0.000000  0.000000 )  
               b(2) = (  0.000000  1.000000  0.000000 )  
               b(3) = (  0.000000  0.000000  1.000000 )  


     PseudoPot. # 1 for Al read from file:
     /opt/pp/Al.pbe-nl-kjpaw_psl.1.0.0.UPF
     MD5 check sum: 1b67f78b73fe58c7924490f171ce8a1e
     Pseudo is Projector augmented-wave + core cor, Zval =  3.0
     Generated using "atomic" code by A. Dal Corso v.6.3
     Shape of augmentation charge: PSQ
     Using radial grid of 1135 points,  4 beta functions with: 
                l(1) =   0
                l(2) =   0
                l(3) =   1
                l(4) =   1
     Q(r) pseudized with 0 coefficients 


     atomic species   valence    mass     pseudopotential
        Al             3.00    26.98200     Al( 1.00)

     No symmetry found



   Cartesian axes

     site n.     atom                  positions (alat units)
         1           Al  tau(   1) = (  -0.0001235   0.0000359   0.0002572  )
         2           Al  tau(   2) = (   0.5003009   0.4992819   0.0002658  )
         3           Al  tau(   3) = (   0.4996490   0.0001153   0.5011170  )
         4           Al  tau(   4) = (  -0.0000756   0.5008267   0.5006943  )

     number of k points=    14  Marzari-Vanderbilt smearing, width (Ry)=  0.0500
                       cart. coord. in units 2pi/alat
        k(    1) = (   0.1666667   0.1666667   0.1666667), wk =   0.1481481
        k(    2) = (   0.1666667   0.1666667  -0.5000000), wk =   0.1481481
        k(    3) = (   0.1666667  -0.5000000  -0.5000000), wk =   0.1481481
        k(    4) = (  -0.5000000  -0.5000000  -0.5000000), wk =   0.0740741
        k(    5) = (  -0.1666667  -0.1666667   0.1666667), wk =   0.1481481
        k(    6) = (  -0.1666667   0.1666667  -0.1666667), wk =   0.1481481
        k(    7) = (   0.1666667  -0.1666667  -0.1666667), wk =   0.1481481
        k(    8) = (  -0.1666667   0.1666667   0.5000000), wk =   0.1481481
        k(    9) = (  -0.5000000  -0.1666667   0.1666667), wk =   0.1481481
        k(   10) = (   0.5000000  -0.1666667  -0.1666667), wk =   0.1481481
        k(   11) = (  -0.1666667  -0.5000000   0.1666667), wk =   0.1481481
        k(   12) = (  -0.1666667   0.5000000  -0.1666667), wk =   0.1481481
        k(   13) = (  -0.5000000   0.1666667   0.5000000), wk =   0.1481481
        k(   14) = (  -0.5000000   0.5000000   0.1666667), wk =   0.1481481

     Dense  grid:      949 G-vectors     FFT dimensions: (  15,  15,  15)

     Estimated max dynamical RAM per process >       2.44 MB

     Initial potential from superposition of free atoms

     starting charge   11.99084, renormalised to   12.00000
     Starting wfcs are   16 randomized atomic wfcs
     Checking if some PAW data can be deallocated... 

     total cpu time spent up to now is        0.9 secs

     Self-consistent Calculation

     iteration #  1     ecut=    42.00 Ry     beta= 0.10
     Davidson diagonalization with overlap
     ethr =  1.00E-02,  avg # of iterations =  3.6

     total cpu time spent up to now is        1.2 secs

     total energy              =    -141.65291517 Ry
     Harris-Foulkes estimate   =    -141.80861011 Ry
     estimated scf accuracy    <       0.18392229 Ry

     iteration #  2     ecut=    42.00 Ry     beta= 0.10
     Davidson diagonalization with overlap
     ethr =  1.53E-03,  avg # of iterations =  1.2

     total cpu time spent up to now is        1.5 secs

     total energy              =    -141.16126333 Ry
     Harris-Foulkes estimate   =    -141.65656961 Ry
     estimated scf accuracy    <       0.15758490 Ry

     iteration #  3     ecut=    42.00 Ry     beta= 0.10
     Davidson diagonalization with overlap
     ethr =  1.31E-03,  avg # of iterations =  2.4

     total cpu time spent up to now is        1.8 secs

     total energy              =    -141.22526431 Ry
     Harris-Foulkes estimate   =    -141.25996985 Ry
     estimated scf accuracy    <       0.02176549 Ry

     iteration #  4     ecut=    42.00 Ry     beta= 0.10
     Davidson diagonalization with overlap
     ethr =  1.81E-04,  avg # of iterations =  1.7

     total cpu time spent up to now is        2.1 secs

     total energy              =    -141.23436815 Ry
     Harris-Foulkes estimate   =    -141.22707639 Ry
     estimated scf accuracy    <       0.01514254 Ry

     iteration #  5     ecut=    42.00 Ry     beta= 0.10
     Davidson diagonalization with overlap
     ethr =  1.26E-04,  avg # of iterations =  1.4

     total cpu time spent up to now is        2.4 secs

     total energy              =    -141.23014095 Ry
     Harris-Foulkes estimate   =    -141.23704973 Ry
     estimated scf accuracy    <       0.00072532 Ry

     iteration #  6     ecut=    42.00 Ry     beta= 0.10
     Davidson diagonalization with overlap
     ethr =  6.04E-06,  avg # of iterations =  2.2

     total cpu time spent up to now is        2.7 secs

     total energy              =    -141.22934277 Ry
     Harris-Foulkes estimate   =    -141.23040040 Ry
     estimated scf accuracy    <       0.00005611 Ry

     iteration #  7     ecut=    42.00 Ry     beta= 0.10
     Davidson diagonalization with overlap
     ethr =  4.68E-07,  avg # of iterations =  2.5

     total cpu time spent up to now is        3.1 secs

     total energy              =    -141.22929055 Ry
     Harris-Foulkes estimate   =    -141.22938753 Ry
     estimated scf accuracy    <       0.00006127 Ry

     iteration #  8     ecut=    42.00 Ry     beta= 0.10
     Davidson diagonalization with overlap
     ethr =  4.68E-07,  avg # of iterations =  1.0

     total cpu time spent up to now is        3.4 secs

     total energy              =    -141.22924385 Ry
     Harris-Foulkes estimate   =    -141.22929317 Ry
     estimated scf accuracy    <       0.00001426 Ry

     iteration #  9     ecut=    42.00 Ry     beta= 0.10
     Davidson diagonalization with overlap
     ethr =  1.19E-07,  avg # of iterations =  2.9

     total cpu time spent up to now is        3.7 secs

     total energy              =    -141.22923388 Ry
     Harris-Foulkes estimate   =    -141.22924702 Ry
     estimated scf accuracy    <       0.00000407 Ry

     iteration # 10     ecut=    42.00 Ry     beta= 0.10
     Davidson diagonalization with overlap
     ethr =  3.40E-08,  avg # of iterations =  2.4

     total cpu time spent up to now is        4.0 secs

     End of self-consistent calculation

          k = 0.1667 0.1667 0.1667 (   293 PWs)   bands (ev):

    32.0847  41.9472  41.9696  41.9938  52.3345  52.3597  52.3847  55.6942
    55.7041  55.7141

          k = 0.1667 0.1667-0.5000 (   302 PWs)   bands (ev):

    37.4077  37.4489  44.7512  44.7513  50.7742  50.7745  56.2476  56.2480
    57.3477  57.3908

          k = 0.1667-0.5000-0.5000 (   312 PWs)   bands (ev):

    41.7421  41.7504  41.7901  41.7982  51.9528  51.9632  51.9887  51.9993
    63.6845  63.6912

          k =-0.5000-0.5000-0.5000 (   304 PWs)   bands (ev):

    44.9430  44.9445  44.9462  44.9463  45.7849  45.7856  45.7875  45.7886
    75.1920  75.1942

          k =-0.1667-0.1667 0.1667 (   293 PWs)   bands (ev):

    32.0847  41.9520  41.9699  41.9887  52.3397  52.3596  52.3795  55.6963
    55.7041  55.7121

          k =-0.1667 0.1667-0.1667 (   293 PWs)   bands (ev):

    32.0847  41.9563  41.9707  41.9835  52.3449  52.3596  52.3743  55.6983
    55.7042  55.7100

          k = 0.1667-0.1667-0.1667 (   293 PWs)   bands (ev):

    32.0847  41.9540  41.9702  41.9864  52.3422  52.3597  52.3771  55.6972
    55.7041  55.7110

          k =-0.1667 0.1667 0.5000 (   302 PWs)   bands (ev):

    37.4077  37.4489  44.7513  44.7514  50.7741  50.7744  56.2475  56.2480
    57.3478  57.3909

          k =-0.5000-0.1667 0.1667 (   302 PWs)   bands (ev):

    37.4257  37.4309  44.7511  44.7516  50.7740  50.7742  56.2478  56.2483
    57.3667  57.3717

          k = 0.5000-0.1667-0.1667 (   302 PWs)   bands (ev):

    37.4257  37.4309  44.7511  44.7515  50.7742  50.7746  56.2468  56.2473
    57.3675  57.3725

          k =-0.1667-0.5000 0.1667 (   302 PWs)   bands (ev):

    37.4276  37.4289  44.7515  44.7515  50.7742  50.7743  56.2468  56.2479
    57.3687  57.3706

          k =-0.1667 0.5000-0.1667 (   302 PWs)   bands (ev):

    37.4276  37.4289  44.7514  44.7515  50.7741  50.7743  56.2473  56.2480
    57.3685  57.3703

          k =-0.5000 0.1667 0.5000 (   312 PWs)   bands (ev):

    41.7447  41.7541  41.7865  41.7953  51.9622  51.9724  51.9799  51.9899
    63.6881  63.6941

          k =-0.5000 0.5000 0.1667 (   312 PWs)   bands (ev):

    41.7494  41.7607  41.7797  41.7910  51.9487  51.9635  51.9886  52.0032
    63.6907  63.7070

     the Fermi energy is    52.2828 ev

!    total energy              =    -141.22923423 Ry
     Harris-Foulkes estimate   =    -141.22923618 Ry
     estimated scf accuracy    <       0.00000063 Ry

     total all-electron energy =     -1925.800356 Ry

     The total energy is the sum of the following terms:

     one-electron contribution =      58.78024512 Ry
     hartree contribution      =       0.22198938 Ry
     xc contribution           =     -17.30002981 Ry
     ewald contribution        =     -40.85514773 Ry
     one-center paw contrib.   =    -142.05844071 Ry
     smearing contrib. (-TS)   =      -0.01785048 Ry

     convergence has been achieved in  10 iterations

     Forces acting on atoms (cartesian axes, Ry/au):

     atom    1 type  1   force =     0.00182780   -0.00072023    0.01618968
     atom    2 type  1   force =    -0.00103828   -0.00160432    0.01621054
     atom    3 type  1   force =    -0.00277664   -0.00033351   -0.01568974
     atom    4 type  1   force =     0.00198713    0.00265806   -0.01671049

     Total force =     0.032812     Total SCF correction =     0.000040


     Computing stress (Cartesian axis) and pressure

          total   stress  (Ry/bohr**3)                   (kbar)     P=60410.66
   0.41066776   0.00000178   0.00000104      60411.30      0.26      0.15
   0.00000178   0.41065925  -0.00000068          0.26  60410.05     -0.10
   0.00000104  -0.00000068   0.41066321          0.15     -0.10  60410.63


     Writing output data file fe_scf_fcc_2.save/

     init_run     :      0.43s CPU      0.45s WALL (       1 calls)
     electrons    :      3.02s CPU      3.11s WALL (       1 calls)
     forces       :      0.02s CPU      0.01s WALL (       1 calls)
     stress       :      0.04s CPU      0.04s WALL (       1 calls)

     Called by init_run:
     wfcinit      :      0.03s CPU      0.03s WALL (       1 calls)
     potinit      :      0.22s CPU      0.25s WALL (       1 calls)
     hinit0       :      0.17s CPU      0.17s WALL (       1 calls)

     Called by electrons:
     c_bands      :      0.53s CPU      0.53s WALL (      10 calls)
     sum_band     :      0.08s CPU      0.08s WALL (      10 calls)
     v_of_rho     :      0.02s CPU      0.02s WALL (      11 calls)
     newd         :      0.01s CPU      0.02s WALL (      11 calls)
     PAW_pot      :      2.60s CPU      2.70s WALL (      11 calls)
     mix_rho      :      0.00s CPU      0.00s WALL (      10 calls)

     Called by c_bands:
     init_us_2    :      0.03s CPU      0.03s WALL (     322 calls)
     cegterg      :      0.51s CPU      0.48s WALL (     140 calls)

     Called by sum_band:
     sum_band:bec :      0.00s CPU      0.00s WALL (     140 calls)
     addusdens    :      0.01s CPU      0.01s WALL (      10 calls)

     Called by *egterg:
     h_psi        :      0.32s CPU      0.31s WALL (     454 calls)
     s_psi        :      0.03s CPU      0.03s WALL (     454 calls)
     g_psi        :      0.00s CPU      0.01s WALL (     300 calls)
     cdiaghg      :      0.10s CPU      0.08s WALL (     440 calls)

     Called by h_psi:
     h_psi:pot    :      0.32s CPU      0.31s WALL (     454 calls)
     h_psi:calbec :      0.02s CPU      0.03s WALL (     454 calls)
     vloc_psi     :      0.25s CPU      0.25s WALL (     454 calls)
     add_vuspsi   :      0.06s CPU      0.03s WALL (     454 calls)

     General routines
     calbec       :      0.02s CPU      0.04s WALL (     664 calls)
     fft          :      0.00s CPU      0.00s WALL (     147 calls)
     ffts         :      0.00s CPU      0.00s WALL (      10 calls)
     fftw         :      0.24s CPU      0.24s WALL (    9122 calls)

     Parallel routines

     PWSCF        :     3.93s CPU         4.06s WALL


   This run was terminated on:   0:44: 0  30Oct2019            

=------------------------------------------------------------------------------=
   JOB DONE.
=------------------------------------------------------------------------------=
