
     Program PWSCF v.6.3 starts on 30Oct2019 at  0:45: 0 

     This program is part of the open-source Quantum ESPRESSO suite
     for quantum simulation of materials; please cite
         "P. Giannozzi et al., J. Phys.:Condens. Matter 21 395502 (2009);
         "P. Giannozzi et al., J. Phys.:Condens. Matter 29 465901 (2017);
          URL http://www.quantum-espresso.org", 
     in publications or presentations arising from this work. More details at
     http://www.quantum-espresso.org/quote

     Parallel version (MPI), running on     1 processors

     MPI processes distributed on     1 nodes
     Reading input from /cloud/Code/python/py_pwscf_converge/src/example2/wd/runpwscf/file_10274.in
Warning: card &IONS ignored
Warning: card ION_DYNAMICS = 'BFGS', ignored
Warning: card / ignored
Warning: card &CELL ignored
Warning: card CELL_DYNAMICS = 'BFGS', ignored
Warning: card CELL_FACTOR = 2.0, ignored
Warning: card PRESS = 0.0, ignored
Warning: card / ignored

     Current dimensions of program PWSCF are:
     Max number of different atomic species (ntypx) = 10
     Max number of k-points (npk) =  40000
     Max angular momentum in pseudopotentials (lmaxx) =  3
               file Al.pbe-nl-kjpaw_psl.1.0.0.UPF: wavefunction(s)  3S 3P renormalized

     Subspace diagonalization in iterative solution of the eigenvalue problem:
     a serial algorithm will be used


     G-vector sticks info
     --------------------
     sticks:   dense  smooth     PW     G-vecs:    dense   smooth      PW
     Sum         121     121     81                  949      949     515



     bravais-lattice index     =            0
     lattice parameter (alat)  =       4.0400  a.u.
     unit-cell volume          =      65.9393 (a.u.)^3
     number of atoms/cell      =            4
     number of atomic types    =            1
     number of electrons       =        12.00
     number of Kohn-Sham states=           10
     kinetic-energy cutoff     =      42.0000  Ry
     charge density cutoff     =      90.0000  Ry
     convergence threshold     =      1.0E-06
     mixing beta               =       0.1000
     number of iterations used =           10  TF        mixing
     Exchange-correlation      = SLA PW PBX PBC ( 1  4  3  4 0 0)

     celldm(1)=   4.040000  celldm(2)=   0.000000  celldm(3)=   0.000000
     celldm(4)=   0.000000  celldm(5)=   0.000000  celldm(6)=   0.000000

     crystal axes: (cart. coord. in units of alat)
               a(1) = (   1.000000   0.000000   0.000000 )  
               a(2) = (   0.000000   1.000000   0.000000 )  
               a(3) = (   0.000000   0.000000   1.000000 )  

     reciprocal axes: (cart. coord. in units 2 pi/alat)
               b(1) = (  1.000000  0.000000  0.000000 )  
               b(2) = (  0.000000  1.000000  0.000000 )  
               b(3) = (  0.000000  0.000000  1.000000 )  


     PseudoPot. # 1 for Al read from file:
     /opt/pp/Al.pbe-nl-kjpaw_psl.1.0.0.UPF
     MD5 check sum: 1b67f78b73fe58c7924490f171ce8a1e
     Pseudo is Projector augmented-wave + core cor, Zval =  3.0
     Generated using "atomic" code by A. Dal Corso v.6.3
     Shape of augmentation charge: PSQ
     Using radial grid of 1135 points,  4 beta functions with: 
                l(1) =   0
                l(2) =   0
                l(3) =   1
                l(4) =   1
     Q(r) pseudized with 0 coefficients 


     atomic species   valence    mass     pseudopotential
        Al             3.00    26.98200     Al( 1.00)

     No symmetry found



   Cartesian axes

     site n.     atom                  positions (alat units)
         1           Al  tau(   1) = (  -0.0001235   0.0000359   0.0002572  )
         2           Al  tau(   2) = (   0.5003009   0.4992819   0.0002658  )
         3           Al  tau(   3) = (   0.4996490   0.0001153   0.5011170  )
         4           Al  tau(   4) = (  -0.0000756   0.5008267   0.5006943  )

     number of k points=    63  Marzari-Vanderbilt smearing, width (Ry)=  0.0300
                       cart. coord. in units 2pi/alat
        k(    1) = (   0.1000000   0.1000000   0.1000000), wk =   0.0320000
        k(    2) = (   0.1000000   0.1000000   0.3000000), wk =   0.0320000
        k(    3) = (   0.1000000   0.1000000  -0.5000000), wk =   0.0320000
        k(    4) = (   0.1000000   0.3000000   0.3000000), wk =   0.0320000
        k(    5) = (   0.1000000   0.3000000  -0.5000000), wk =   0.0320000
        k(    6) = (   0.1000000  -0.5000000  -0.5000000), wk =   0.0320000
        k(    7) = (   0.3000000   0.3000000   0.3000000), wk =   0.0320000
        k(    8) = (   0.3000000   0.3000000  -0.5000000), wk =   0.0320000
        k(    9) = (   0.3000000  -0.5000000  -0.5000000), wk =   0.0320000
        k(   10) = (  -0.5000000  -0.5000000  -0.5000000), wk =   0.0160000
        k(   11) = (  -0.1000000  -0.1000000   0.1000000), wk =   0.0320000
        k(   12) = (  -0.1000000   0.1000000  -0.1000000), wk =   0.0320000
        k(   13) = (   0.1000000  -0.1000000  -0.1000000), wk =   0.0320000
        k(   14) = (  -0.1000000  -0.1000000   0.3000000), wk =   0.0320000
        k(   15) = (  -0.1000000   0.1000000  -0.3000000), wk =   0.0320000
        k(   16) = (   0.1000000  -0.1000000  -0.3000000), wk =   0.0320000
        k(   17) = (   0.3000000  -0.1000000   0.1000000), wk =   0.0320000
        k(   18) = (  -0.3000000  -0.1000000  -0.1000000), wk =   0.0320000
        k(   19) = (   0.3000000   0.1000000  -0.1000000), wk =   0.0320000
        k(   20) = (  -0.3000000   0.1000000   0.1000000), wk =   0.0320000
        k(   21) = (  -0.1000000   0.3000000   0.1000000), wk =   0.0320000
        k(   22) = (  -0.1000000  -0.3000000  -0.1000000), wk =   0.0320000
        k(   23) = (   0.1000000   0.3000000  -0.1000000), wk =   0.0320000
        k(   24) = (   0.1000000  -0.3000000   0.1000000), wk =   0.0320000
        k(   25) = (  -0.1000000   0.1000000   0.5000000), wk =   0.0320000
        k(   26) = (  -0.5000000  -0.1000000   0.1000000), wk =   0.0320000
        k(   27) = (   0.5000000  -0.1000000  -0.1000000), wk =   0.0320000
        k(   28) = (  -0.1000000  -0.5000000   0.1000000), wk =   0.0320000
        k(   29) = (  -0.1000000   0.5000000  -0.1000000), wk =   0.0320000
        k(   30) = (  -0.1000000  -0.3000000   0.3000000), wk =   0.0320000
        k(   31) = (  -0.1000000   0.3000000  -0.3000000), wk =   0.0320000
        k(   32) = (   0.1000000  -0.3000000  -0.3000000), wk =   0.0320000
        k(   33) = (   0.3000000   0.1000000  -0.3000000), wk =   0.0320000
        k(   34) = (  -0.3000000  -0.1000000  -0.3000000), wk =   0.0320000
        k(   35) = (   0.3000000  -0.1000000   0.3000000), wk =   0.0320000
        k(   36) = (  -0.3000000   0.1000000   0.3000000), wk =   0.0320000
        k(   37) = (   0.3000000  -0.3000000   0.1000000), wk =   0.0320000
        k(   38) = (  -0.3000000  -0.3000000  -0.1000000), wk =   0.0320000
        k(   39) = (   0.3000000   0.3000000  -0.1000000), wk =   0.0320000
        k(   40) = (  -0.3000000   0.3000000   0.1000000), wk =   0.0320000
        k(   41) = (  -0.1000000   0.3000000   0.5000000), wk =   0.0320000
        k(   42) = (   0.3000000   0.1000000   0.5000000), wk =   0.0320000
        k(   43) = (   0.3000000  -0.1000000  -0.5000000), wk =   0.0320000
        k(   44) = (  -0.5000000  -0.3000000   0.1000000), wk =   0.0320000
        k(   45) = (   0.5000000  -0.3000000  -0.1000000), wk =   0.0320000
        k(   46) = (  -0.1000000  -0.5000000   0.3000000), wk =   0.0320000
        k(   47) = (  -0.1000000   0.5000000  -0.3000000), wk =   0.0320000
        k(   48) = (   0.3000000  -0.5000000   0.1000000), wk =   0.0320000
        k(   49) = (   0.3000000   0.5000000  -0.1000000), wk =   0.0320000
        k(   50) = (  -0.5000000   0.1000000   0.3000000), wk =   0.0320000
        k(   51) = (   0.5000000  -0.1000000   0.3000000), wk =   0.0320000
        k(   52) = (  -0.5000000   0.1000000   0.5000000), wk =   0.0320000
        k(   53) = (  -0.5000000   0.5000000   0.1000000), wk =   0.0320000
        k(   54) = (  -0.3000000  -0.3000000   0.3000000), wk =   0.0320000
        k(   55) = (  -0.3000000   0.3000000  -0.3000000), wk =   0.0320000
        k(   56) = (   0.3000000  -0.3000000  -0.3000000), wk =   0.0320000
        k(   57) = (  -0.3000000   0.3000000   0.5000000), wk =   0.0320000
        k(   58) = (  -0.5000000  -0.3000000   0.3000000), wk =   0.0320000
        k(   59) = (   0.5000000  -0.3000000  -0.3000000), wk =   0.0320000
        k(   60) = (  -0.3000000  -0.5000000   0.3000000), wk =   0.0320000
        k(   61) = (  -0.3000000   0.5000000  -0.3000000), wk =   0.0320000
        k(   62) = (  -0.5000000   0.3000000   0.5000000), wk =   0.0320000
        k(   63) = (  -0.5000000   0.5000000   0.3000000), wk =   0.0320000

     Dense  grid:      949 G-vectors     FFT dimensions: (  15,  15,  15)

     Estimated max dynamical RAM per process >       4.71 MB

     Initial potential from superposition of free atoms

     starting charge   11.99084, renormalised to   12.00000
     Starting wfcs are   16 randomized atomic wfcs
     Checking if some PAW data can be deallocated... 

     total cpu time spent up to now is        1.0 secs

     Self-consistent Calculation

     iteration #  1     ecut=    42.00 Ry     beta= 0.10
     Davidson diagonalization with overlap
     ethr =  1.00E-02,  avg # of iterations =  4.7

     total cpu time spent up to now is        1.7 secs

     total energy              =    -141.66550178 Ry
     Harris-Foulkes estimate   =    -141.82101605 Ry
     estimated scf accuracy    <       0.18356078 Ry

     iteration #  2     ecut=    42.00 Ry     beta= 0.10
     Davidson diagonalization with overlap
     ethr =  1.53E-03,  avg # of iterations =  1.1

     total cpu time spent up to now is        2.1 secs

     total energy              =    -141.17165743 Ry
     Harris-Foulkes estimate   =    -141.66899841 Ry
     estimated scf accuracy    <       0.15332253 Ry

     iteration #  3     ecut=    42.00 Ry     beta= 0.10
     Davidson diagonalization with overlap
     ethr =  1.28E-03,  avg # of iterations =  2.0

     total cpu time spent up to now is        2.6 secs

     total energy              =    -141.24536181 Ry
     Harris-Foulkes estimate   =    -141.24700353 Ry
     estimated scf accuracy    <       0.01539879 Ry

     iteration #  4     ecut=    42.00 Ry     beta= 0.10
     Davidson diagonalization with overlap
     ethr =  1.28E-04,  avg # of iterations =  1.3

     total cpu time spent up to now is        3.1 secs

     total energy              =    -141.24807744 Ry
     Harris-Foulkes estimate   =    -141.24573933 Ry
     estimated scf accuracy    <       0.01152923 Ry

     iteration #  5     ecut=    42.00 Ry     beta= 0.10
     Davidson diagonalization with overlap
     ethr =  9.61E-05,  avg # of iterations =  1.9

     total cpu time spent up to now is        3.5 secs

     total energy              =    -141.25177768 Ry
     Harris-Foulkes estimate   =    -141.24942090 Ry
     estimated scf accuracy    <       0.00045582 Ry

     iteration #  6     ecut=    42.00 Ry     beta= 0.10
     Davidson diagonalization with overlap
     ethr =  3.80E-06,  avg # of iterations =  3.0

     total cpu time spent up to now is        4.1 secs

     total energy              =    -141.24928676 Ry
     Harris-Foulkes estimate   =    -141.25204878 Ry
     estimated scf accuracy    <       0.00002556 Ry

     iteration #  7     ecut=    42.00 Ry     beta= 0.10
     Davidson diagonalization with overlap
     ethr =  2.13E-07,  avg # of iterations =  3.4

     total cpu time spent up to now is        4.7 secs

     total energy              =    -141.24935082 Ry
     Harris-Foulkes estimate   =    -141.24947669 Ry
     estimated scf accuracy    <       0.00007583 Ry

     iteration #  8     ecut=    42.00 Ry     beta= 0.10
     Davidson diagonalization with overlap
     ethr =  2.13E-07,  avg # of iterations =  2.1

     total cpu time spent up to now is        5.2 secs

     total energy              =    -141.24936252 Ry
     Harris-Foulkes estimate   =    -141.24936346 Ry
     estimated scf accuracy    <       0.00001341 Ry

     iteration #  9     ecut=    42.00 Ry     beta= 0.10
     Davidson diagonalization with overlap
     ethr =  1.12E-07,  avg # of iterations =  1.0

     total cpu time spent up to now is        5.6 secs

     total energy              =    -141.24936210 Ry
     Harris-Foulkes estimate   =    -141.24936310 Ry
     estimated scf accuracy    <       0.00000980 Ry

     iteration # 10     ecut=    42.00 Ry     beta= 0.10
     Davidson diagonalization with overlap
     ethr =  8.17E-08,  avg # of iterations =  1.0

     total cpu time spent up to now is        6.1 secs

     End of self-consistent calculation

          k = 0.1000 0.1000 0.1000 (   296 PWs)   bands (ev):

    30.3989  41.2145  41.2292  41.2460  52.3525  52.3693  52.3859  54.7103
    54.7194  54.7287

          k = 0.1000 0.1000 0.3000 (   304 PWs)   bands (ev):

    32.8013  39.8191  43.1345  43.1548  52.2156  52.2338  54.4430  54.4544
    54.6191  58.7208

          k = 0.1000 0.1000-0.5000 (   306 PWs)   bands (ev):

    36.5017  36.5431  44.5082  44.5085  52.1611  52.1613  54.2326  54.2327
    59.1417  59.2046

          k = 0.1000 0.3000 0.3000 (   297 PWs)   bands (ev):

    34.9601  41.6728  41.7107  44.5155  50.9188  53.2443  53.2934  55.4899
    58.4213  58.4240

          k = 0.1000 0.3000-0.5000 (   304 PWs)   bands (ev):

    38.3997  38.4426  44.0315  44.0550  51.6286  51.6351  56.4073  56.4378
    56.9960  56.9985

          k = 0.1000-0.5000-0.5000 (   308 PWs)   bands (ev):

    41.3806  41.3889  41.4294  41.4377  53.6119  53.6238  53.6529  53.6650
    61.3268  61.3327

          k = 0.3000 0.3000 0.3000 (   305 PWs)   bands (ev):

    36.8340  43.3711  43.4054  43.4409  49.7653  49.8040  49.8428  56.2829
    61.5618  61.5665

          k = 0.3000 0.3000-0.5000 (   304 PWs)   bands (ev):

    40.0088  40.0533  45.2863  45.2872  47.4895  47.4905  52.3269  52.3276
    63.0279  63.0281

          k = 0.3000-0.5000-0.5000 (   292 PWs)   bands (ev):

    42.7946  42.8044  42.8478  42.8577  48.8822  48.8937  48.9268  48.9385
    69.0269  69.0387

          k =-0.5000-0.5000-0.5000 (   304 PWs)   bands (ev):

    44.9359  44.9374  44.9396  44.9397  45.7483  45.7489  45.7511  45.7527
    75.1893  75.1906

          k =-0.1000-0.1000 0.1000 (   296 PWs)   bands (ev):

    30.3989  41.2177  41.2295  41.2426  52.3560  52.3692  52.3824  54.7122
    54.7194  54.7267

          k =-0.1000 0.1000-0.1000 (   296 PWs)   bands (ev):

    30.3989  41.2204  41.2304  41.2389  52.3594  52.3692  52.3790  54.7141
    54.7194  54.7249

          k = 0.1000-0.1000-0.1000 (   296 PWs)   bands (ev):

    30.3988  41.2190  41.2298  41.2409  52.3576  52.3693  52.3808  54.7131
    54.7194  54.7259

          k =-0.1000-0.1000 0.3000 (   304 PWs)   bands (ev):

    32.8013  39.8191  43.1345  43.1547  52.2157  52.2338  54.4431  54.4545
    54.6189  58.7208

          k =-0.1000 0.1000-0.3000 (   304 PWs)   bands (ev):

    32.8013  39.8191  43.1400  43.1492  52.2206  52.2289  54.4461  54.4514
    54.6190  58.7207

          k = 0.1000-0.1000-0.3000 (   304 PWs)   bands (ev):

    32.8013  39.8191  43.1400  43.1493  52.2205  52.2288  54.4461  54.4514
    54.6192  58.7207

          k = 0.3000-0.1000 0.1000 (   304 PWs)   bands (ev):

    32.8013  39.8190  43.1399  43.1493  52.2204  52.2288  54.4462  54.4515
    54.6191  58.7208

          k =-0.3000-0.1000-0.1000 (   304 PWs)   bands (ev):

    32.8013  39.8190  43.1360  43.1533  52.2170  52.2324  54.4436  54.4532
    54.6199  58.7208

          k = 0.3000 0.1000-0.1000 (   304 PWs)   bands (ev):

    32.8013  39.8190  43.1400  43.1494  52.2204  52.2288  54.4463  54.4516
    54.6191  58.7208

          k =-0.3000 0.1000 0.1000 (   304 PWs)   bands (ev):

    32.8013  39.8190  43.1360  43.1532  52.2171  52.2325  54.4437  54.4534
    54.6194  58.7208

          k =-0.1000 0.3000 0.1000 (   304 PWs)   bands (ev):

    32.8013  39.8189  43.1435  43.1461  52.2236  52.2259  54.4479  54.4494
    54.6190  58.7208

          k =-0.1000-0.3000-0.1000 (   304 PWs)   bands (ev):

    32.8013  39.8189  43.1397  43.1499  52.2202  52.2292  54.4459  54.4516
    54.6191  58.7208

          k = 0.1000 0.3000-0.1000 (   304 PWs)   bands (ev):

    32.8013  39.8189  43.1435  43.1461  52.2236  52.2259  54.4477  54.4493
    54.6194  58.7207

          k = 0.1000-0.3000 0.1000 (   304 PWs)   bands (ev):

    32.8013  39.8189  43.1397  43.1498  52.2202  52.2293  54.4458  54.4515
    54.6189  58.7208

          k =-0.1000 0.1000 0.5000 (   306 PWs)   bands (ev):

    36.5017  36.5431  44.5083  44.5085  52.1611  52.1611  54.2326  54.2328
    59.1417  59.2046

          k =-0.5000-0.1000 0.1000 (   306 PWs)   bands (ev):

    36.5199  36.5249  44.5083  44.5085  52.1609  52.1610  54.2328  54.2330
    59.1696  59.1769

          k = 0.5000-0.1000-0.1000 (   306 PWs)   bands (ev):

    36.5198  36.5249  44.5083  44.5085  52.1613  52.1614  54.2324  54.2325
    59.1697  59.1770

          k =-0.1000-0.5000 0.1000 (   306 PWs)   bands (ev):

    36.5217  36.5230  44.5085  44.5087  52.1611  52.1612  54.2325  54.2327
    59.1721  59.1742

          k =-0.1000 0.5000-0.1000 (   306 PWs)   bands (ev):

    36.5217  36.5230  44.5085  44.5087  52.1610  52.1612  54.2327  54.2327
    59.1721  59.1742

          k =-0.1000-0.3000 0.3000 (   297 PWs)   bands (ev):

    34.9601  41.6814  41.7021  44.5154  50.9190  53.2554  53.2821  55.4899
    58.4218  58.4232

          k =-0.1000 0.3000-0.3000 (   297 PWs)   bands (ev):

    34.9601  41.6815  41.7021  44.5153  50.9190  53.2553  53.2821  55.4900
    58.4218  58.4233

          k = 0.1000-0.3000-0.3000 (   297 PWs)   bands (ev):

    34.9601  41.6728  41.7107  44.5155  50.9189  53.2443  53.2934  55.4899
    58.4211  58.4238

          k = 0.3000 0.1000-0.3000 (   297 PWs)   bands (ev):

    34.9601  41.6889  41.6946  44.5154  50.9187  53.2652  53.2726  55.4900
    58.4223  58.4229

          k =-0.3000-0.1000-0.3000 (   297 PWs)   bands (ev):

    34.9601  41.6806  41.7029  44.5153  50.9189  53.2546  53.2834  55.4900
    58.4216  58.4232

          k = 0.3000-0.1000 0.3000 (   297 PWs)   bands (ev):

    34.9601  41.6806  41.7029  44.5153  50.9188  53.2544  53.2832  55.4901
    58.4217  58.4233

          k =-0.3000 0.1000 0.3000 (   297 PWs)   bands (ev):

    34.9601  41.6889  41.6946  44.5153  50.9189  53.2653  53.2727  55.4899
    58.4220  58.4226

          k = 0.3000-0.3000 0.1000 (   297 PWs)   bands (ev):

    34.9601  41.6816  41.7019  44.5155  50.9187  53.2555  53.2820  55.4900
    58.4219  58.4234

          k =-0.3000-0.3000-0.1000 (   297 PWs)   bands (ev):

    34.9601  41.6696  41.7139  44.5154  50.9190  53.2399  53.2977  55.4898
    58.4210  58.4242

          k = 0.3000 0.3000-0.1000 (   297 PWs)   bands (ev):

    34.9601  41.6696  41.7140  44.5154  50.9189  53.2398  53.2976  55.4901
    58.4210  58.4242

          k =-0.3000 0.3000 0.1000 (   297 PWs)   bands (ev):

    34.9601  41.6816  41.7018  44.5154  50.9190  53.2556  53.2821  55.4895
    58.4218  58.4233

          k =-0.1000 0.3000 0.5000 (   304 PWs)   bands (ev):

    38.3997  38.4426  44.0315  44.0551  51.6285  51.6350  56.4070  56.4375
    56.9963  56.9988

          k = 0.3000 0.1000 0.5000 (   304 PWs)   bands (ev):

    38.3997  38.4426  44.0314  44.0550  51.6286  51.6352  56.4075  56.4380
    56.9959  56.9982

          k = 0.3000-0.1000-0.5000 (   304 PWs)   bands (ev):

    38.3997  38.4426  44.0315  44.0550  51.6286  51.6351  56.4074  56.4379
    56.9960  56.9984

          k =-0.5000-0.3000 0.1000 (   304 PWs)   bands (ev):

    38.4185  38.4237  44.0419  44.0447  51.6312  51.6319  56.4213  56.4248
    56.9968  56.9971

          k = 0.5000-0.3000-0.1000 (   304 PWs)   bands (ev):

    38.4185  38.4237  44.0419  44.0447  51.6315  51.6323  56.4185  56.4225
    56.9982  57.0003

          k =-0.1000-0.5000 0.3000 (   304 PWs)   bands (ev):

    38.4203  38.4217  44.0430  44.0439  51.6317  51.6319  56.4212  56.4228
    56.9970  56.9984

          k =-0.1000 0.5000-0.3000 (   304 PWs)   bands (ev):

    38.4204  38.4217  44.0430  44.0438  51.6316  51.6319  56.4215  56.4230
    56.9968  56.9982

          k = 0.3000-0.5000 0.1000 (   304 PWs)   bands (ev):

    38.4204  38.4218  44.0430  44.0438  51.6315  51.6319  56.4211  56.4232
    56.9968  56.9986

          k = 0.3000 0.5000-0.1000 (   304 PWs)   bands (ev):

    38.4204  38.4218  44.0430  44.0438  51.6317  51.6319  56.4195  56.4230
    56.9968  57.0002

          k =-0.5000 0.1000 0.3000 (   304 PWs)   bands (ev):

    38.4185  38.4237  44.0419  44.0447  51.6316  51.6324  56.4203  56.4240
    56.9971  56.9982

          k = 0.5000-0.1000 0.3000 (   304 PWs)   bands (ev):

    38.4185  38.4237  44.0419  44.0447  51.6313  51.6321  56.4212  56.4248
    56.9968  56.9972

          k =-0.5000 0.1000 0.5000 (   308 PWs)   bands (ev):

    41.3833  41.3925  41.4256  41.4348  53.6228  53.6344  53.6427  53.6542
    61.3308  61.3361

          k =-0.5000 0.5000 0.1000 (   308 PWs)   bands (ev):

    41.3880  41.3994  41.4188  41.4303  53.6071  53.6241  53.6527  53.6695
    61.3264  61.3342

          k =-0.3000-0.3000 0.3000 (   305 PWs)   bands (ev):

    36.8340  43.3784  43.4056  43.4334  49.7734  49.8040  49.8346  56.2831
    61.5628  61.5664

          k =-0.3000 0.3000-0.3000 (   305 PWs)   bands (ev):

    36.8340  43.3853  43.4061  43.4261  49.7813  49.8039  49.8267  56.2831
    61.5636  61.5666

          k = 0.3000-0.3000-0.3000 (   305 PWs)   bands (ev):

    36.8340  43.3816  43.4057  43.4300  49.7772  49.8041  49.8310  56.2827
    61.5632  61.5665

          k =-0.3000 0.3000 0.5000 (   304 PWs)   bands (ev):

    40.0087  40.0532  45.2868  45.2873  47.4894  47.4899  52.3269  52.3277
    63.0280  63.0281

          k =-0.5000-0.3000 0.3000 (   304 PWs)   bands (ev):

    40.0283  40.0336  45.2871  45.2873  47.4893  47.4896  52.3273  52.3274
    63.0280  63.0281

          k = 0.5000-0.3000-0.3000 (   304 PWs)   bands (ev):

    40.0283  40.0336  45.2868  45.2871  47.4898  47.4899  52.3272  52.3273
    63.0279  63.0282

          k =-0.3000-0.5000 0.3000 (   304 PWs)   bands (ev):

    40.0302  40.0316  45.2872  45.2874  47.4894  47.4895  52.3272  52.3274
    63.0280  63.0282

          k =-0.3000 0.5000-0.3000 (   304 PWs)   bands (ev):

    40.0302  40.0316  45.2871  45.2874  47.4894  47.4896  52.3271  52.3274
    63.0279  63.0282

          k =-0.5000 0.3000 0.5000 (   292 PWs)   bands (ev):

    42.7985  42.8091  42.8431  42.8536  48.8904  48.9019  48.9190  48.9303
    69.0210  69.0310

          k =-0.5000 0.5000 0.3000 (   292 PWs)   bands (ev):

    42.8008  42.8145  42.8377  42.8514  48.8804  48.8967  48.9241  48.9402
    69.0206  69.0331

     the Fermi energy is    52.5164 ev

!    total energy              =    -141.24935917 Ry
     Harris-Foulkes estimate   =    -141.24936244 Ry
     estimated scf accuracy    <       0.00000025 Ry

     total all-electron energy =     -1925.820481 Ry

     The total energy is the sum of the following terms:

     one-electron contribution =      58.68958990 Ry
     hartree contribution      =       0.21848333 Ry
     xc contribution           =     -17.29131663 Ry
     ewald contribution        =     -40.85514773 Ry
     one-center paw contrib.   =    -142.01085858 Ry
     smearing contrib. (-TS)   =      -0.00010945 Ry

     convergence has been achieved in  10 iterations

     Forces acting on atoms (cartesian axes, Ry/au):

     atom    1 type  1   force =     0.00207706   -0.00031159    0.01650420
     atom    2 type  1   force =    -0.00422528    0.00598164    0.01644309
     atom    3 type  1   force =     0.00039717   -0.00077960   -0.01799736
     atom    4 type  1   force =     0.00175105   -0.00489044   -0.01494994

     Total force =     0.034292     Total SCF correction =     0.000023


     Computing stress (Cartesian axis) and pressure

          total   stress  (Ry/bohr**3)                   (kbar)     P=59908.23
   0.40725306   0.00000069   0.00000073      59908.98      0.10      0.11
   0.00000069   0.40724417  -0.00000142          0.10  59907.68     -0.21
   0.00000073  -0.00000142   0.40724664          0.11     -0.21  59908.04


     Writing output data file fe_scf_fcc_2.save/

     init_run     :      0.55s CPU      0.57s WALL (       1 calls)
     electrons    :      4.91s CPU      5.08s WALL (       1 calls)
     forces       :      0.04s CPU      0.04s WALL (       1 calls)
     stress       :      0.14s CPU      0.14s WALL (       1 calls)

     Called by init_run:
     wfcinit      :      0.14s CPU      0.14s WALL (       1 calls)
     potinit      :      0.24s CPU      0.25s WALL (       1 calls)
     hinit0       :      0.17s CPU      0.17s WALL (       1 calls)

     Called by electrons:
     c_bands      :      2.21s CPU      2.27s WALL (      10 calls)
     sum_band     :      0.32s CPU      0.33s WALL (      10 calls)
     v_of_rho     :      0.02s CPU      0.02s WALL (      11 calls)
     newd         :      0.02s CPU      0.02s WALL (      11 calls)
     PAW_pot      :      2.57s CPU      2.68s WALL (      11 calls)
     mix_rho      :      0.01s CPU      0.00s WALL (      10 calls)

     Called by c_bands:
     init_us_2    :      0.15s CPU      0.14s WALL (    1449 calls)
     cegterg      :      1.96s CPU      2.06s WALL (     630 calls)

     Called by sum_band:
     sum_band:bec :      0.00s CPU      0.00s WALL (     630 calls)
     addusdens    :      0.02s CPU      0.01s WALL (      10 calls)

     Called by *egterg:
     h_psi        :      1.24s CPU      1.35s WALL (    2053 calls)
     s_psi        :      0.12s CPU      0.13s WALL (    2053 calls)
     g_psi        :      0.04s CPU      0.02s WALL (    1360 calls)
     cdiaghg      :      0.36s CPU      0.33s WALL (    1990 calls)

     Called by h_psi:
     h_psi:pot    :      1.24s CPU      1.34s WALL (    2053 calls)
     h_psi:calbec :      0.14s CPU      0.12s WALL (    2053 calls)
     vloc_psi     :      0.96s CPU      1.08s WALL (    2053 calls)
     add_vuspsi   :      0.13s CPU      0.13s WALL (    2053 calls)

     General routines
     calbec       :      0.19s CPU      0.18s WALL (    2998 calls)
     fft          :      0.02s CPU      0.00s WALL (     147 calls)
     ffts         :      0.00s CPU      0.00s WALL (      10 calls)
     fftw         :      0.94s CPU      1.06s WALL (   40536 calls)

     Parallel routines

     PWSCF        :     6.07s CPU         6.29s WALL


   This run was terminated on:   0:45: 6  30Oct2019            

=------------------------------------------------------------------------------=
   JOB DONE.
=------------------------------------------------------------------------------=
