
     Program PWSCF v.6.4.1 starts on 24Feb2020 at 15:59:53 

     This program is part of the open-source Quantum ESPRESSO suite
     for quantum simulation of materials; please cite
         "P. Giannozzi et al., J. Phys.:Condens. Matter 21 395502 (2009);
         "P. Giannozzi et al., J. Phys.:Condens. Matter 29 465901 (2017);
          URL http://www.quantum-espresso.org", 
     in publications or presentations arising from this work. More details at
     http://www.quantum-espresso.org/quote

     Parallel version (MPI), running on     4 processors

     MPI processes distributed on     1 nodes
     R & G space division:  proc/nbgrp/npool/nimage =       4
     Reading input from /cloud/Code/python/py_pwscf_converge/src/example2/wd/runpwscf/file_10221.in
Warning: card &IONS ignored
Warning: card ION_DYNAMICS = 'BFGS', ignored
Warning: card / ignored
Warning: card &CELL ignored
Warning: card CELL_DYNAMICS = 'BFGS', ignored
Warning: card CELL_FACTOR = 2.0, ignored
Warning: card PRESS = 0.0, ignored
Warning: card / ignored

     Current dimensions of program PWSCF are:
     Max number of different atomic species (ntypx) = 10
     Max number of k-points (npk) =  40000
     Max angular momentum in pseudopotentials (lmaxx) =  3
               file Al.pbe-nl-kjpaw_psl.1.0.0.UPF: wavefunction(s)  3S 3P renormalized

     Subspace diagonalization in iterative solution of the eigenvalue problem:
     a serial algorithm will be used


     Parallelization info
     --------------------
     sticks:   dense  smooth     PW     G-vecs:    dense   smooth      PW
     Min         115     115     70                 1873     1873     893
     Max         117     117     72                 1875     1875     894
     Sum         465     465    285                 7497     7497    3575



     bravais-lattice index     =            0
     lattice parameter (alat)  =       7.6356  a.u.
     unit-cell volume          =     445.1737 (a.u.)^3
     number of atoms/cell      =            4
     number of atomic types    =            1
     number of electrons       =        12.00
     number of Kohn-Sham states=           10
     kinetic-energy cutoff     =      50.0000  Ry
     charge density cutoff     =     100.0000  Ry
     convergence threshold     =      1.0E-06
     mixing beta               =       0.1000
     number of iterations used =           10  TF        mixing
     Exchange-correlation      = SLA PW PBX PBC ( 1  4  3  4 0 0)

     celldm(1)=   7.635600  celldm(2)=   0.000000  celldm(3)=   0.000000
     celldm(4)=   0.000000  celldm(5)=   0.000000  celldm(6)=   0.000000

     crystal axes: (cart. coord. in units of alat)
               a(1) = (   1.000000   0.000000   0.000000 )  
               a(2) = (   0.000000   1.000000   0.000000 )  
               a(3) = (   0.000000   0.000000   1.000000 )  

     reciprocal axes: (cart. coord. in units 2 pi/alat)
               b(1) = (  1.000000  0.000000  0.000000 )  
               b(2) = (  0.000000  1.000000  0.000000 )  
               b(3) = (  0.000000  0.000000  1.000000 )  


     PseudoPot. # 1 for Al read from file:
     /opt/pp/Al.pbe-nl-kjpaw_psl.1.0.0.UPF
     MD5 check sum: 1b67f78b73fe58c7924490f171ce8a1e
     Pseudo is Projector augmented-wave + core cor, Zval =  3.0
     Generated using "atomic" code by A. Dal Corso v.6.3
     Shape of augmentation charge: PSQ
     Using radial grid of 1135 points,  4 beta functions with: 
                l(1) =   0
                l(2) =   0
                l(3) =   1
                l(4) =   1
     Q(r) pseudized with 0 coefficients 


     atomic species   valence    mass     pseudopotential
        Al             3.00    26.98200     Al( 1.00)

     No symmetry found



   Cartesian axes

     site n.     atom                  positions (alat units)
         1           Al  tau(   1) = (  -0.0000654   0.0000190   0.0001361  )
         2           Al  tau(   2) = (   0.5001592   0.4996200   0.0001406  )
         3           Al  tau(   3) = (   0.4998143   0.0000610   0.5005910  )
         4           Al  tau(   4) = (  -0.0000400   0.5004374   0.5003674  )

     number of k points=    63  Marzari-Vanderbilt smearing, width (Ry)=  0.0020
                       cart. coord. in units 2pi/alat
        k(    1) = (   0.1000000   0.1000000   0.1000000), wk =   0.0320000
        k(    2) = (   0.1000000   0.1000000   0.3000000), wk =   0.0320000
        k(    3) = (   0.1000000   0.1000000  -0.5000000), wk =   0.0320000
        k(    4) = (   0.1000000   0.3000000   0.3000000), wk =   0.0320000
        k(    5) = (   0.1000000   0.3000000  -0.5000000), wk =   0.0320000
        k(    6) = (   0.1000000  -0.5000000  -0.5000000), wk =   0.0320000
        k(    7) = (   0.3000000   0.3000000   0.3000000), wk =   0.0320000
        k(    8) = (   0.3000000   0.3000000  -0.5000000), wk =   0.0320000
        k(    9) = (   0.3000000  -0.5000000  -0.5000000), wk =   0.0320000
        k(   10) = (  -0.5000000  -0.5000000  -0.5000000), wk =   0.0160000
        k(   11) = (  -0.1000000  -0.1000000   0.1000000), wk =   0.0320000
        k(   12) = (  -0.1000000   0.1000000  -0.1000000), wk =   0.0320000
        k(   13) = (   0.1000000  -0.1000000  -0.1000000), wk =   0.0320000
        k(   14) = (  -0.1000000  -0.1000000   0.3000000), wk =   0.0320000
        k(   15) = (  -0.1000000   0.1000000  -0.3000000), wk =   0.0320000
        k(   16) = (   0.1000000  -0.1000000  -0.3000000), wk =   0.0320000
        k(   17) = (   0.3000000  -0.1000000   0.1000000), wk =   0.0320000
        k(   18) = (  -0.3000000  -0.1000000  -0.1000000), wk =   0.0320000
        k(   19) = (   0.3000000   0.1000000  -0.1000000), wk =   0.0320000
        k(   20) = (  -0.3000000   0.1000000   0.1000000), wk =   0.0320000
        k(   21) = (  -0.1000000   0.3000000   0.1000000), wk =   0.0320000
        k(   22) = (  -0.1000000  -0.3000000  -0.1000000), wk =   0.0320000
        k(   23) = (   0.1000000   0.3000000  -0.1000000), wk =   0.0320000
        k(   24) = (   0.1000000  -0.3000000   0.1000000), wk =   0.0320000
        k(   25) = (  -0.1000000   0.1000000   0.5000000), wk =   0.0320000
        k(   26) = (  -0.5000000  -0.1000000   0.1000000), wk =   0.0320000
        k(   27) = (   0.5000000  -0.1000000  -0.1000000), wk =   0.0320000
        k(   28) = (  -0.1000000  -0.5000000   0.1000000), wk =   0.0320000
        k(   29) = (  -0.1000000   0.5000000  -0.1000000), wk =   0.0320000
        k(   30) = (  -0.1000000  -0.3000000   0.3000000), wk =   0.0320000
        k(   31) = (  -0.1000000   0.3000000  -0.3000000), wk =   0.0320000
        k(   32) = (   0.1000000  -0.3000000  -0.3000000), wk =   0.0320000
        k(   33) = (   0.3000000   0.1000000  -0.3000000), wk =   0.0320000
        k(   34) = (  -0.3000000  -0.1000000  -0.3000000), wk =   0.0320000
        k(   35) = (   0.3000000  -0.1000000   0.3000000), wk =   0.0320000
        k(   36) = (  -0.3000000   0.1000000   0.3000000), wk =   0.0320000
        k(   37) = (   0.3000000  -0.3000000   0.1000000), wk =   0.0320000
        k(   38) = (  -0.3000000  -0.3000000  -0.1000000), wk =   0.0320000
        k(   39) = (   0.3000000   0.3000000  -0.1000000), wk =   0.0320000
        k(   40) = (  -0.3000000   0.3000000   0.1000000), wk =   0.0320000
        k(   41) = (  -0.1000000   0.3000000   0.5000000), wk =   0.0320000
        k(   42) = (   0.3000000   0.1000000   0.5000000), wk =   0.0320000
        k(   43) = (   0.3000000  -0.1000000  -0.5000000), wk =   0.0320000
        k(   44) = (  -0.5000000  -0.3000000   0.1000000), wk =   0.0320000
        k(   45) = (   0.5000000  -0.3000000  -0.1000000), wk =   0.0320000
        k(   46) = (  -0.1000000  -0.5000000   0.3000000), wk =   0.0320000
        k(   47) = (  -0.1000000   0.5000000  -0.3000000), wk =   0.0320000
        k(   48) = (   0.3000000  -0.5000000   0.1000000), wk =   0.0320000
        k(   49) = (   0.3000000   0.5000000  -0.1000000), wk =   0.0320000
        k(   50) = (  -0.5000000   0.1000000   0.3000000), wk =   0.0320000
        k(   51) = (   0.5000000  -0.1000000   0.3000000), wk =   0.0320000
        k(   52) = (  -0.5000000   0.1000000   0.5000000), wk =   0.0320000
        k(   53) = (  -0.5000000   0.5000000   0.1000000), wk =   0.0320000
        k(   54) = (  -0.3000000  -0.3000000   0.3000000), wk =   0.0320000
        k(   55) = (  -0.3000000   0.3000000  -0.3000000), wk =   0.0320000
        k(   56) = (   0.3000000  -0.3000000  -0.3000000), wk =   0.0320000
        k(   57) = (  -0.3000000   0.3000000   0.5000000), wk =   0.0320000
        k(   58) = (  -0.5000000  -0.3000000   0.3000000), wk =   0.0320000
        k(   59) = (   0.5000000  -0.3000000  -0.3000000), wk =   0.0320000
        k(   60) = (  -0.3000000  -0.5000000   0.3000000), wk =   0.0320000
        k(   61) = (  -0.3000000   0.5000000  -0.3000000), wk =   0.0320000
        k(   62) = (  -0.5000000   0.3000000   0.5000000), wk =   0.0320000
        k(   63) = (  -0.5000000   0.5000000   0.3000000), wk =   0.0320000

     Dense  grid:     7497 G-vectors     FFT dimensions: (  25,  25,  25)

     Estimated max dynamical RAM per process >       9.81 MB

     Estimated total dynamical RAM >      39.25 MB

     Initial potential from superposition of free atoms

     starting charge   11.99084, renormalised to   12.00000
     Starting wfcs are   16 randomized atomic wfcs
     Checking if some PAW data can be deallocated... 

     total cpu time spent up to now is        1.1 secs

     Self-consistent Calculation

     iteration #  1     ecut=    50.00 Ry     beta= 0.10
     Davidson diagonalization with overlap
     ethr =  1.00E-02,  avg # of iterations =  3.1

     Threshold (ethr) on eigenvalues was too large:
     Diagonalizing with lowered threshold

     Davidson diagonalization with overlap
     ethr =  1.98E-04,  avg # of iterations =  3.5

     total cpu time spent up to now is        3.1 secs

     total energy              =    -158.00352756 Ry
     Harris-Foulkes estimate   =    -158.00435720 Ry
     estimated scf accuracy    <       0.02313814 Ry

     iteration #  2     ecut=    50.00 Ry     beta= 0.10
     Davidson diagonalization with overlap
     ethr =  1.93E-04,  avg # of iterations =  1.0

     total cpu time spent up to now is        3.8 secs

     total energy              =    -157.99741316 Ry
     Harris-Foulkes estimate   =    -158.00364086 Ry
     estimated scf accuracy    <       0.01995371 Ry

     iteration #  3     ecut=    50.00 Ry     beta= 0.10
     Davidson diagonalization with overlap
     ethr =  1.66E-04,  avg # of iterations =  1.0

     total cpu time spent up to now is        4.4 secs

     total energy              =    -157.99775635 Ry
     Harris-Foulkes estimate   =    -157.99779931 Ry
     estimated scf accuracy    <       0.00009359 Ry

     iteration #  4     ecut=    50.00 Ry     beta= 0.10
     Davidson diagonalization with overlap
     ethr =  7.80E-07,  avg # of iterations =  4.3

     total cpu time spent up to now is        5.7 secs

     total energy              =    -157.99781942 Ry
     Harris-Foulkes estimate   =    -157.99783366 Ry
     estimated scf accuracy    <       0.00006019 Ry

     iteration #  5     ecut=    50.00 Ry     beta= 0.10
     Davidson diagonalization with overlap
     ethr =  5.02E-07,  avg # of iterations =  1.0

     total cpu time spent up to now is        6.4 secs

     total energy              =    -157.99777444 Ry
     Harris-Foulkes estimate   =    -157.99782090 Ry
     estimated scf accuracy    <       0.00004393 Ry

     iteration #  6     ecut=    50.00 Ry     beta= 0.10
     Davidson diagonalization with overlap
     ethr =  3.66E-07,  avg # of iterations =  2.0

     total cpu time spent up to now is        7.3 secs

     total energy              =    -157.99778479 Ry
     Harris-Foulkes estimate   =    -157.99778478 Ry
     estimated scf accuracy    <       0.00000138 Ry

     iteration #  7     ecut=    50.00 Ry     beta= 0.10
     Davidson diagonalization with overlap
     ethr =  1.15E-08,  avg # of iterations =  1.3

     total cpu time spent up to now is        8.0 secs

     total energy              =    -157.99778470 Ry
     Harris-Foulkes estimate   =    -157.99778485 Ry
     estimated scf accuracy    <       0.00000136 Ry

     iteration #  8     ecut=    50.00 Ry     beta= 0.10
     Davidson diagonalization with overlap
     ethr =  1.13E-08,  avg # of iterations =  1.0

     total cpu time spent up to now is        8.6 secs

     End of self-consistent calculation

          k = 0.1000 0.1000 0.1000 (  2647 PWs)   bands (ev):

    -2.9624   4.0414   4.0426   4.0441   7.7413   7.7430   7.7446  10.7600
    10.7618  10.7639

          k = 0.1000 0.1000 0.3000 (  2672 PWs)   bands (ev):

    -2.2400   1.3147   4.7243   4.7262   8.0297   8.0344   8.5353   8.5361
    11.3553  11.7953

          k = 0.1000 0.1000-0.5000 (  2658 PWs)   bands (ev):

    -0.8100  -0.8024   5.9690   5.9692   6.2096   6.2099   9.5127   9.5128
    10.1725  10.1729

          k = 0.1000 0.3000 0.3000 (  2669 PWs)   bands (ev):

    -1.5213   2.0147   2.0166   5.3096   5.5747   8.7940   8.7970   9.1490
    12.1853  12.1898

          k = 0.1000 0.3000-0.5000 (  2656 PWs)   bands (ev):

    -0.0983  -0.0907   3.4025   3.4103   6.7750   6.7832  10.1382  10.1468
    10.4834  10.4906

          k = 0.1000-0.5000-0.5000 (  2668 PWs)   bands (ev):

     1.3141   1.3145   1.3218   1.3224   8.1266   8.1272   8.1352   8.1360
    11.8252  11.8300

          k = 0.3000 0.3000 0.3000 (  2653 PWs)   bands (ev):

    -0.8060   2.7114   2.7128   2.7143   6.1651   6.1667   6.1684   9.5490
    13.0691  13.0712

          k = 0.3000 0.3000-0.5000 (  2644 PWs)   bands (ev):

     0.6100   0.6176   3.9821   3.9823   4.2302   4.2305   7.5247   7.5328
    14.5673  14.5678

          k = 0.3000-0.5000-0.5000 (  2660 PWs)   bands (ev):

     2.0154   2.0158   2.0231   2.0237   5.4846   5.4850   5.4925   5.4931
    15.6205  15.6260

          k =-0.5000-0.5000-0.5000 (  2608 PWs)   bands (ev):

     3.3106   3.3107   3.3108   3.3109   3.5267   3.5272   3.5273   3.5274
    19.3090  19.3093

          k =-0.1000-0.1000 0.1000 (  2647 PWs)   bands (ev):

    -2.9624   4.0416   4.0428   4.0438   7.7416   7.7430   7.7443  10.7603
    10.7619  10.7634

          k =-0.1000 0.1000-0.1000 (  2647 PWs)   bands (ev):

    -2.9624   4.0420   4.0426   4.0435   7.7420   7.7430   7.7439  10.7608
    10.7618  10.7630

          k = 0.1000-0.1000-0.1000 (  2647 PWs)   bands (ev):

    -2.9624   4.0417   4.0427   4.0437   7.7418   7.7430   7.7441  10.7605
    10.7619  10.7632

          k =-0.1000-0.1000 0.3000 (  2672 PWs)   bands (ev):

    -2.2400   1.3147   4.7243   4.7262   8.0297   8.0344   8.5353   8.5361
    11.3553  11.7949

          k =-0.1000 0.1000-0.3000 (  2672 PWs)   bands (ev):

    -2.2400   1.3147   4.7248   4.7257   8.0310   8.0331   8.5355   8.5359
    11.3553  11.7950

          k = 0.1000-0.1000-0.3000 (  2672 PWs)   bands (ev):

    -2.2400   1.3147   4.7248   4.7257   8.0310   8.0331   8.5355   8.5359
    11.3553  11.7951

          k = 0.3000-0.1000 0.1000 (  2672 PWs)   bands (ev):

    -2.2400   1.3147   4.7248   4.7257   8.0310   8.0331   8.5356   8.5359
    11.3553  11.7950

          k =-0.3000-0.1000-0.1000 (  2672 PWs)   bands (ev):

    -2.2400   1.3147   4.7244   4.7261   8.0301   8.0340   8.5354   8.5360
    11.3553  11.7948

          k = 0.3000 0.1000-0.1000 (  2672 PWs)   bands (ev):

    -2.2400   1.3147   4.7248   4.7257   8.0310   8.0331   8.5356   8.5359
    11.3553  11.7952

          k =-0.3000 0.1000 0.1000 (  2672 PWs)   bands (ev):

    -2.2400   1.3147   4.7244   4.7261   8.0301   8.0340   8.5354   8.5360
    11.3553  11.7949

          k =-0.1000 0.3000 0.1000 (  2672 PWs)   bands (ev):

    -2.2400   1.3147   4.7251   4.7254   8.0317   8.0324   8.5357   8.5358
    11.3553  11.7945

          k =-0.1000-0.3000-0.1000 (  2672 PWs)   bands (ev):

    -2.2400   1.3147   4.7248   4.7257   8.0309   8.0332   8.5355   8.5360
    11.3553  11.7947

          k = 0.1000 0.3000-0.1000 (  2672 PWs)   bands (ev):

    -2.2400   1.3147   4.7251   4.7254   8.0317   8.0324   8.5357   8.5358
    11.3553  11.7944

          k = 0.1000-0.3000 0.1000 (  2672 PWs)   bands (ev):

    -2.2400   1.3147   4.7248   4.7257   8.0309   8.0332   8.5355   8.5360
    11.3553  11.7943

          k =-0.1000 0.1000 0.5000 (  2658 PWs)   bands (ev):

    -0.8100  -0.8024   5.9691   5.9691   6.2095   6.2100   9.5127   9.5127
    10.1724  10.1729

          k =-0.5000-0.1000 0.1000 (  2658 PWs)   bands (ev):

    -0.8067  -0.8058   5.9691   5.9692   6.2096   6.2098   9.5127   9.5127
    10.1725  10.1729

          k = 0.5000-0.1000-0.1000 (  2658 PWs)   bands (ev):

    -0.8067  -0.8058   5.9691   5.9692   6.2096   6.2098   9.5127   9.5127
    10.1725  10.1729

          k =-0.1000-0.5000 0.1000 (  2658 PWs)   bands (ev):

    -0.8064  -0.8061   5.9692   5.9692   6.2096   6.2098   9.5127   9.5128
    10.1726  10.1728

          k =-0.1000 0.5000-0.1000 (  2658 PWs)   bands (ev):

    -0.8064  -0.8061   5.9691   5.9692   6.2097   6.2097   9.5127   9.5128
    10.1726  10.1727

          k =-0.1000-0.3000 0.3000 (  2669 PWs)   bands (ev):

    -1.5213   2.0152   2.0162   5.3096   5.5747   8.7947   8.7963   9.1490
    12.1864  12.1896

          k =-0.1000 0.3000-0.3000 (  2669 PWs)   bands (ev):

    -1.5213   2.0152   2.0162   5.3096   5.5747   8.7947   8.7963   9.1490
    12.1867  12.1895

          k = 0.1000-0.3000-0.3000 (  2669 PWs)   bands (ev):

    -1.5213   2.0147   2.0166   5.3096   5.5747   8.7940   8.7970   9.1490
    12.1855  12.1908

          k = 0.3000 0.1000-0.3000 (  2669 PWs)   bands (ev):

    -1.5213   2.0155   2.0158   5.3096   5.5747   8.7952   8.7957   9.1490
    12.1875  12.1886

          k =-0.3000-0.1000-0.3000 (  2669 PWs)   bands (ev):

    -1.5213   2.0152   2.0161   5.3096   5.5747   8.7947   8.7963   9.1490
    12.1860  12.1894

          k = 0.3000-0.1000 0.3000 (  2669 PWs)   bands (ev):

    -1.5213   2.0152   2.0161   5.3096   5.5747   8.7947   8.7963   9.1490
    12.1866  12.1893

          k =-0.3000 0.1000 0.3000 (  2669 PWs)   bands (ev):

    -1.5213   2.0155   2.0158   5.3096   5.5747   8.7952   8.7957   9.1490
    12.1877  12.1886

          k = 0.3000-0.3000 0.1000 (  2669 PWs)   bands (ev):

    -1.5213   2.0152   2.0161   5.3096   5.5747   8.7947   8.7963   9.1490
    12.1866  12.1884

          k =-0.3000-0.3000-0.1000 (  2669 PWs)   bands (ev):

    -1.5213   2.0146   2.0167   5.3096   5.5747   8.7938   8.7972   9.1490
    12.1852  12.1904

          k = 0.3000 0.3000-0.1000 (  2669 PWs)   bands (ev):

    -1.5213   2.0146   2.0167   5.3096   5.5747   8.7938   8.7972   9.1490
    12.1851  12.1910

          k =-0.3000 0.3000 0.1000 (  2669 PWs)   bands (ev):

    -1.5213   2.0152   2.0161   5.3096   5.5747   8.7947   8.7963   9.1490
    12.1860  12.1896

          k =-0.1000 0.3000 0.5000 (  2656 PWs)   bands (ev):

    -0.0983  -0.0907   3.4025   3.4103   6.7750   6.7832  10.1382  10.1468
    10.4834  10.4906

          k = 0.3000 0.1000 0.5000 (  2656 PWs)   bands (ev):

    -0.0983  -0.0907   3.4025   3.4103   6.7750   6.7832  10.1382  10.1468
    10.4834  10.4906

          k = 0.3000-0.1000-0.5000 (  2656 PWs)   bands (ev):

    -0.0983  -0.0907   3.4025   3.4103   6.7750   6.7832  10.1382  10.1468
    10.4834  10.4906

          k =-0.5000-0.3000 0.1000 (  2656 PWs)   bands (ev):

    -0.0950  -0.0941   3.4060   3.4069   6.7786   6.7796  10.1420  10.1430
    10.4866  10.4874

          k = 0.5000-0.3000-0.1000 (  2656 PWs)   bands (ev):

    -0.0950  -0.0941   3.4060   3.4069   6.7786   6.7796  10.1420  10.1430
    10.4866  10.4874

          k =-0.1000-0.5000 0.3000 (  2656 PWs)   bands (ev):

    -0.0947  -0.0944   3.4063   3.4066   6.7790   6.7793  10.1424  10.1427
    10.4869  10.4871

          k =-0.1000 0.5000-0.3000 (  2656 PWs)   bands (ev):

    -0.0947  -0.0944   3.4063   3.4066   6.7790   6.7793  10.1424  10.1427
    10.4869  10.4871

          k = 0.3000-0.5000 0.1000 (  2656 PWs)   bands (ev):

    -0.0947  -0.0944   3.4063   3.4066   6.7790   6.7793  10.1424  10.1427
    10.4869  10.4871

          k = 0.3000 0.5000-0.1000 (  2656 PWs)   bands (ev):

    -0.0947  -0.0944   3.4063   3.4066   6.7790   6.7793  10.1424  10.1427
    10.4869  10.4871

          k =-0.5000 0.1000 0.3000 (  2656 PWs)   bands (ev):

    -0.0950  -0.0941   3.4060   3.4069   6.7786   6.7796  10.1420  10.1430
    10.4866  10.4874

          k = 0.5000-0.1000 0.3000 (  2656 PWs)   bands (ev):

    -0.0950  -0.0941   3.4060   3.4069   6.7786   6.7796  10.1420  10.1430
    10.4866  10.4874

          k =-0.5000 0.1000 0.5000 (  2668 PWs)   bands (ev):

     1.3139   1.3149   1.3216   1.3226   8.1265   8.1276   8.1349   8.1360
    11.8288  11.8323

          k =-0.5000 0.5000 0.1000 (  2668 PWs)   bands (ev):

     1.3170   1.3177   1.3188   1.3195   8.1295   8.1304   8.1320   8.1330
    11.8284  11.8287

          k =-0.3000-0.3000 0.3000 (  2653 PWs)   bands (ev):

    -0.8060   2.7116   2.7129   2.7140   6.1654   6.1668   6.1680   9.5490
    13.0696  13.0709

          k =-0.3000 0.3000-0.3000 (  2653 PWs)   bands (ev):

    -0.8060   2.7120   2.7128   2.7137   6.1658   6.1667   6.1677   9.5490
    13.0701  13.0713

          k = 0.3000-0.3000-0.3000 (  2653 PWs)   bands (ev):

    -0.8060   2.7118   2.7129   2.7138   6.1655   6.1668   6.1679   9.5490
    13.0693  13.0713

          k =-0.3000 0.3000 0.5000 (  2644 PWs)   bands (ev):

     0.6100   0.6176   3.9821   3.9822   4.2302   4.2306   7.5247   7.5328
    14.5670  14.5673

          k =-0.5000-0.3000 0.3000 (  2644 PWs)   bands (ev):

     0.6133   0.6143   3.9822   3.9823   4.2302   4.2305   7.5283   7.5292
    14.5666  14.5677

          k = 0.5000-0.3000-0.3000 (  2644 PWs)   bands (ev):

     0.6133   0.6143   3.9822   3.9822   4.2302   4.2305   7.5283   7.5292
    14.5666  14.5676

          k =-0.3000-0.5000 0.3000 (  2644 PWs)   bands (ev):

     0.6137   0.6139   3.9822   3.9822   4.2302   4.2304   7.5286   7.5289
    14.5671  14.5676

          k =-0.3000 0.5000-0.3000 (  2644 PWs)   bands (ev):

     0.6137   0.6139   3.9822   3.9823   4.2303   4.2303   7.5286   7.5289
    14.1690  14.5676

          k =-0.5000 0.3000 0.5000 (  2660 PWs)   bands (ev):

     2.0152   2.0161   2.0229   2.0238   5.4843   5.4853   5.4923   5.4933
    15.6184  15.6240

          k =-0.5000 0.5000 0.3000 (  2660 PWs)   bands (ev):

     2.0183   2.0189   2.0200   2.0207   5.4875   5.4882   5.4894   5.4901
    15.6226  15.6231

     the Fermi energy is     8.0404 ev

!    total energy              =    -157.99778537 Ry
     Harris-Foulkes estimate   =    -157.99778479 Ry
     estimated scf accuracy    <       0.00000045 Ry

     total all-electron energy =     -1942.568907 Ry

     The total energy is the sum of the following terms:

     one-electron contribution =      12.66359979 Ry
     hartree contribution      =       0.02355747 Ry
     xc contribution           =     -10.36178486 Ry
     ewald contribution        =     -21.61650270 Ry
     one-center paw contrib.   =    -138.70644753 Ry
     smearing contrib. (-TS)   =      -0.00020755 Ry

     convergence has been achieved in   8 iterations

     Forces acting on atoms (cartesian axes, Ry/au):

     atom    1 type  1   force =     0.00004404   -0.00005110    0.00029771
     atom    2 type  1   force =     0.00006770   -0.00033337    0.00032397
     atom    3 type  1   force =    -0.00017887    0.00004203   -0.00025920
     atom    4 type  1   force =     0.00006713    0.00034243   -0.00036248

     Total force =     0.000817     Total SCF correction =     0.000085
     SCF correction compared to forces is large: reduce conv_thr to get better values


     Computing stress (Cartesian axis) and pressure

          total   stress  (Ry/bohr**3)                   (kbar)     P=   -4.11
  -0.00002799   0.00000001  -0.00000001         -4.12      0.00     -0.00
   0.00000001  -0.00002780   0.00000005          0.00     -4.09      0.01
  -0.00000001   0.00000005  -0.00002802         -0.00      0.01     -4.12


     Writing output data file fe_scf_fcc_2.save/

     init_run     :      0.59s CPU      0.61s WALL (       1 calls)
     electrons    :      7.18s CPU      7.57s WALL (       1 calls)
     forces       :      0.16s CPU      0.16s WALL (       1 calls)
     stress       :      0.29s CPU      0.29s WALL (       1 calls)

     Called by init_run:
     wfcinit      :      0.48s CPU      0.50s WALL (       1 calls)
     potinit      :      0.05s CPU      0.05s WALL (       1 calls)
     hinit0       :      0.06s CPU      0.06s WALL (       1 calls)

     Called by electrons:
     c_bands      :      5.96s CPU      6.29s WALL (       9 calls)
     sum_band     :      0.81s CPU      0.86s WALL (       9 calls)
     v_of_rho     :      0.03s CPU      0.03s WALL (       9 calls)
     newd         :      0.02s CPU      0.02s WALL (       9 calls)
     PAW_pot      :      0.41s CPU      0.42s WALL (       9 calls)
     mix_rho      :      0.00s CPU      0.00s WALL (       9 calls)

     Called by c_bands:
     init_us_2    :      0.20s CPU      0.21s WALL (    1323 calls)
     cegterg      :      5.60s CPU      5.91s WALL (     567 calls)

     Called by sum_band:
     sum_band:bec :      0.00s CPU      0.00s WALL (     567 calls)
     addusdens    :      0.01s CPU      0.01s WALL (       9 calls)

     Called by *egterg:
     h_psi        :      3.80s CPU      4.00s WALL (    1780 calls)
     s_psi        :      0.50s CPU      0.53s WALL (    1780 calls)
     g_psi        :      0.03s CPU      0.03s WALL (    1150 calls)
     cdiaghg      :      0.29s CPU      0.30s WALL (    1654 calls)

     Called by h_psi:
     h_psi:pot    :      3.77s CPU      3.97s WALL (    1780 calls)
     h_psi:calbec :      0.72s CPU      0.76s WALL (    1780 calls)
     vloc_psi     :      2.55s CPU      2.68s WALL (    1780 calls)
     add_vuspsi   :      0.50s CPU      0.53s WALL (    1780 calls)

     General routines
     calbec       :      1.13s CPU      1.19s WALL (    2662 calls)
     fft          :      0.01s CPU      0.02s WALL (     125 calls)
     ffts         :      0.00s CPU      0.00s WALL (       9 calls)
     fftw         :      2.76s CPU      2.91s WALL (   35586 calls)

     Parallel routines
     fft_scatt_xy :      0.29s CPU      0.31s WALL (   35720 calls)
     fft_scatt_yz :      1.44s CPU      1.52s WALL (   35720 calls)

     PWSCF        :      8.69s CPU      9.18s WALL


   This run was terminated on:  16: 0: 2  24Feb2020            

=------------------------------------------------------------------------------=
   JOB DONE.
=------------------------------------------------------------------------------=
