
     Program PWSCF v.6.3 starts on 30Oct2019 at  0:43:51 

     This program is part of the open-source Quantum ESPRESSO suite
     for quantum simulation of materials; please cite
         "P. Giannozzi et al., J. Phys.:Condens. Matter 21 395502 (2009);
         "P. Giannozzi et al., J. Phys.:Condens. Matter 29 465901 (2017);
          URL http://www.quantum-espresso.org", 
     in publications or presentations arising from this work. More details at
     http://www.quantum-espresso.org/quote

     Parallel version (MPI), running on     1 processors

     MPI processes distributed on     1 nodes
     Reading input from /cloud/Code/python/py_pwscf_converge/src/example2/wd/runpwscf/file_10265.in
Warning: card &IONS ignored
Warning: card ION_DYNAMICS = 'BFGS', ignored
Warning: card / ignored
Warning: card &CELL ignored
Warning: card CELL_DYNAMICS = 'BFGS', ignored
Warning: card CELL_FACTOR = 2.0, ignored
Warning: card PRESS = 0.0, ignored
Warning: card / ignored

     Current dimensions of program PWSCF are:
     Max number of different atomic species (ntypx) = 10
     Max number of k-points (npk) =  40000
     Max angular momentum in pseudopotentials (lmaxx) =  3
               file Al.pbe-nl-kjpaw_psl.1.0.0.UPF: wavefunction(s)  3S 3P renormalized

     Subspace diagonalization in iterative solution of the eigenvalue problem:
     a serial algorithm will be used


     G-vector sticks info
     --------------------
     sticks:   dense  smooth     PW     G-vecs:    dense   smooth      PW
     Sum         121     121     81                  949      949     515



     bravais-lattice index     =            0
     lattice parameter (alat)  =       4.0400  a.u.
     unit-cell volume          =      65.9393 (a.u.)^3
     number of atoms/cell      =            4
     number of atomic types    =            1
     number of electrons       =        12.00
     number of Kohn-Sham states=           10
     kinetic-energy cutoff     =      42.0000  Ry
     charge density cutoff     =      90.0000  Ry
     convergence threshold     =      1.0E-06
     mixing beta               =       0.1000
     number of iterations used =           10  TF        mixing
     Exchange-correlation      = SLA PW PBX PBC ( 1  4  3  4 0 0)

     celldm(1)=   4.040000  celldm(2)=   0.000000  celldm(3)=   0.000000
     celldm(4)=   0.000000  celldm(5)=   0.000000  celldm(6)=   0.000000

     crystal axes: (cart. coord. in units of alat)
               a(1) = (   1.000000   0.000000   0.000000 )  
               a(2) = (   0.000000   1.000000   0.000000 )  
               a(3) = (   0.000000   0.000000   1.000000 )  

     reciprocal axes: (cart. coord. in units 2 pi/alat)
               b(1) = (  1.000000  0.000000  0.000000 )  
               b(2) = (  0.000000  1.000000  0.000000 )  
               b(3) = (  0.000000  0.000000  1.000000 )  


     PseudoPot. # 1 for Al read from file:
     /opt/pp/Al.pbe-nl-kjpaw_psl.1.0.0.UPF
     MD5 check sum: 1b67f78b73fe58c7924490f171ce8a1e
     Pseudo is Projector augmented-wave + core cor, Zval =  3.0
     Generated using "atomic" code by A. Dal Corso v.6.3
     Shape of augmentation charge: PSQ
     Using radial grid of 1135 points,  4 beta functions with: 
                l(1) =   0
                l(2) =   0
                l(3) =   1
                l(4) =   1
     Q(r) pseudized with 0 coefficients 


     atomic species   valence    mass     pseudopotential
        Al             3.00    26.98200     Al( 1.00)

     No symmetry found



   Cartesian axes

     site n.     atom                  positions (alat units)
         1           Al  tau(   1) = (  -0.0001235   0.0000359   0.0002572  )
         2           Al  tau(   2) = (   0.5003009   0.4992819   0.0002658  )
         3           Al  tau(   3) = (   0.4996490   0.0001153   0.5011170  )
         4           Al  tau(   4) = (  -0.0000756   0.5008267   0.5006943  )

     number of k points=    14  Marzari-Vanderbilt smearing, width (Ry)=  0.0400
                       cart. coord. in units 2pi/alat
        k(    1) = (   0.1666667   0.1666667   0.1666667), wk =   0.1481481
        k(    2) = (   0.1666667   0.1666667  -0.5000000), wk =   0.1481481
        k(    3) = (   0.1666667  -0.5000000  -0.5000000), wk =   0.1481481
        k(    4) = (  -0.5000000  -0.5000000  -0.5000000), wk =   0.0740741
        k(    5) = (  -0.1666667  -0.1666667   0.1666667), wk =   0.1481481
        k(    6) = (  -0.1666667   0.1666667  -0.1666667), wk =   0.1481481
        k(    7) = (   0.1666667  -0.1666667  -0.1666667), wk =   0.1481481
        k(    8) = (  -0.1666667   0.1666667   0.5000000), wk =   0.1481481
        k(    9) = (  -0.5000000  -0.1666667   0.1666667), wk =   0.1481481
        k(   10) = (   0.5000000  -0.1666667  -0.1666667), wk =   0.1481481
        k(   11) = (  -0.1666667  -0.5000000   0.1666667), wk =   0.1481481
        k(   12) = (  -0.1666667   0.5000000  -0.1666667), wk =   0.1481481
        k(   13) = (  -0.5000000   0.1666667   0.5000000), wk =   0.1481481
        k(   14) = (  -0.5000000   0.5000000   0.1666667), wk =   0.1481481

     Dense  grid:      949 G-vectors     FFT dimensions: (  15,  15,  15)

     Estimated max dynamical RAM per process >       2.44 MB

     Initial potential from superposition of free atoms

     starting charge   11.99084, renormalised to   12.00000
     Starting wfcs are   16 randomized atomic wfcs
     Checking if some PAW data can be deallocated... 

     total cpu time spent up to now is        0.9 secs

     Self-consistent Calculation

     iteration #  1     ecut=    42.00 Ry     beta= 0.10
     Davidson diagonalization with overlap
     ethr =  1.00E-02,  avg # of iterations =  3.6

     total cpu time spent up to now is        1.2 secs

     total energy              =    -141.65072911 Ry
     Harris-Foulkes estimate   =    -141.80681372 Ry
     estimated scf accuracy    <       0.18548222 Ry

     iteration #  2     ecut=    42.00 Ry     beta= 0.10
     Davidson diagonalization with overlap
     ethr =  1.55E-03,  avg # of iterations =  1.2

     total cpu time spent up to now is        1.5 secs

     total energy              =    -141.15746746 Ry
     Harris-Foulkes estimate   =    -141.65441992 Ry
     estimated scf accuracy    <       0.15902870 Ry

     iteration #  3     ecut=    42.00 Ry     beta= 0.10
     Davidson diagonalization with overlap
     ethr =  1.33E-03,  avg # of iterations =  2.4

     total cpu time spent up to now is        1.8 secs

     total energy              =    -141.22074132 Ry
     Harris-Foulkes estimate   =    -141.25667496 Ry
     estimated scf accuracy    <       0.02179604 Ry

     iteration #  4     ecut=    42.00 Ry     beta= 0.10
     Davidson diagonalization with overlap
     ethr =  1.82E-04,  avg # of iterations =  1.7

     total cpu time spent up to now is        2.1 secs

     total energy              =    -141.23172997 Ry
     Harris-Foulkes estimate   =    -141.22275045 Ry
     estimated scf accuracy    <       0.01514895 Ry

     iteration #  5     ecut=    42.00 Ry     beta= 0.10
     Davidson diagonalization with overlap
     ethr =  1.26E-04,  avg # of iterations =  1.4

     total cpu time spent up to now is        2.4 secs

     total energy              =    -141.22628919 Ry
     Harris-Foulkes estimate   =    -141.23461384 Ry
     estimated scf accuracy    <       0.00088417 Ry

     iteration #  6     ecut=    42.00 Ry     beta= 0.10
     Davidson diagonalization with overlap
     ethr =  7.37E-06,  avg # of iterations =  2.0

     total cpu time spent up to now is        2.7 secs

     total energy              =    -141.22554060 Ry
     Harris-Foulkes estimate   =    -141.22660481 Ry
     estimated scf accuracy    <       0.00006210 Ry

     iteration #  7     ecut=    42.00 Ry     beta= 0.10
     Davidson diagonalization with overlap
     ethr =  5.18E-07,  avg # of iterations =  2.5

     total cpu time spent up to now is        3.0 secs

     total energy              =    -141.22553044 Ry
     Harris-Foulkes estimate   =    -141.22558944 Ry
     estimated scf accuracy    <       0.00006503 Ry

     iteration #  8     ecut=    42.00 Ry     beta= 0.10
     Davidson diagonalization with overlap
     ethr =  5.18E-07,  avg # of iterations =  1.0

     total cpu time spent up to now is        3.3 secs

     total energy              =    -141.22545534 Ry
     Harris-Foulkes estimate   =    -141.22553179 Ry
     estimated scf accuracy    <       0.00001662 Ry

     iteration #  9     ecut=    42.00 Ry     beta= 0.10
     Davidson diagonalization with overlap
     ethr =  1.38E-07,  avg # of iterations =  2.8

     total cpu time spent up to now is        3.6 secs

     total energy              =    -141.22545165 Ry
     Harris-Foulkes estimate   =    -141.22546010 Ry
     estimated scf accuracy    <       0.00000411 Ry

     iteration # 10     ecut=    42.00 Ry     beta= 0.10
     Davidson diagonalization with overlap
     ethr =  3.43E-08,  avg # of iterations =  2.4

     total cpu time spent up to now is        3.9 secs

     End of self-consistent calculation

          k = 0.1667 0.1667 0.1667 (   293 PWs)   bands (ev):

    32.0892  41.9528  41.9750  41.9989  52.3340  52.3589  52.3836  55.6957
    55.7053  55.7150

          k = 0.1667 0.1667-0.5000 (   302 PWs)   bands (ev):

    37.4122  37.4532  44.7569  44.7570  50.7743  50.7746  56.2483  56.2487
    57.3470  57.3904

          k = 0.1667-0.5000-0.5000 (   312 PWs)   bands (ev):

    41.7464  41.7546  41.7940  41.8019  51.9541  51.9644  51.9895  51.9999
    63.6855  63.6923

          k =-0.5000-0.5000-0.5000 (   304 PWs)   bands (ev):

    44.9428  44.9444  44.9460  44.9461  45.7904  45.7910  45.7929  45.7939
    75.1931  75.1952

          k =-0.1667-0.1667 0.1667 (   293 PWs)   bands (ev):

    32.0892  41.9575  41.9753  41.9939  52.3391  52.3587  52.3784  55.6977
    55.7053  55.7130

          k =-0.1667 0.1667-0.1667 (   293 PWs)   bands (ev):

    32.0892  41.9618  41.9761  41.9887  52.3442  52.3587  52.3733  55.6997
    55.7054  55.7110

          k = 0.1667-0.1667-0.1667 (   293 PWs)   bands (ev):

    32.0892  41.9595  41.9755  41.9915  52.3416  52.3588  52.3761  55.6986
    55.7053  55.7119

          k =-0.1667 0.1667 0.5000 (   302 PWs)   bands (ev):

    37.4122  37.4532  44.7570  44.7571  50.7742  50.7745  56.2482  56.2486
    57.3471  57.3905

          k =-0.5000-0.1667 0.1667 (   302 PWs)   bands (ev):

    37.4301  37.4352  44.7568  44.7574  50.7741  50.7743  56.2485  56.2490
    57.3661  57.3711

          k = 0.5000-0.1667-0.1667 (   302 PWs)   bands (ev):

    37.4301  37.4352  44.7567  44.7573  50.7743  50.7747  56.2475  56.2479
    57.3669  57.3720

          k =-0.1667-0.5000 0.1667 (   302 PWs)   bands (ev):

    37.4320  37.4333  44.7572  44.7572  50.7743  50.7745  56.2475  56.2486
    57.3681  57.3700

          k =-0.1667 0.5000-0.1667 (   302 PWs)   bands (ev):

    37.4320  37.4333  44.7571  44.7573  50.7742  50.7744  56.2480  56.2487
    57.3679  57.3697

          k =-0.5000 0.1667 0.5000 (   312 PWs)   bands (ev):

    41.7489  41.7583  41.7905  41.7991  51.9634  51.9734  51.9808  51.9906
    63.6998  63.7059

          k =-0.5000 0.5000 0.1667 (   312 PWs)   bands (ev):

    41.7537  41.7649  41.7836  41.7947  51.9500  51.9646  51.9893  52.0038
    63.6918  63.7084

     the Fermi energy is    52.2654 ev

!    total energy              =    -141.22545082 Ry
     Harris-Foulkes estimate   =    -141.22545370 Ry
     estimated scf accuracy    <       0.00000041 Ry

     total all-electron energy =     -1925.796573 Ry

     The total energy is the sum of the following terms:

     one-electron contribution =      58.78447590 Ry
     hartree contribution      =       0.22384977 Ry
     xc contribution           =     -17.30133537 Ry
     ewald contribution        =     -40.85514773 Ry
     one-center paw contrib.   =    -142.06185838 Ry
     smearing contrib. (-TS)   =      -0.01543501 Ry

     convergence has been achieved in  10 iterations

     Forces acting on atoms (cartesian axes, Ry/au):

     atom    1 type  1   force =     0.00176633   -0.00081738    0.01612620
     atom    2 type  1   force =    -0.00031787   -0.00331346    0.01616311
     atom    3 type  1   force =    -0.00348340   -0.00023434   -0.01517621
     atom    4 type  1   force =     0.00203495    0.00436517   -0.01711310

     Total force =     0.033087     Total SCF correction =     0.000042


     Computing stress (Cartesian axis) and pressure

          total   stress  (Ry/bohr**3)                   (kbar)     P=60445.01
   0.41090174   0.00000215   0.00000133      60445.72      0.32      0.20
   0.00000215   0.41089219  -0.00000078          0.32  60444.32     -0.12
   0.00000133  -0.00000078   0.41089669          0.20     -0.12  60444.98


     Writing output data file fe_scf_fcc_2.save/

     init_run     :      0.44s CPU      0.46s WALL (       1 calls)
     electrons    :      2.94s CPU      3.06s WALL (       1 calls)
     forces       :      0.02s CPU      0.02s WALL (       1 calls)
     stress       :      0.04s CPU      0.04s WALL (       1 calls)

     Called by init_run:
     wfcinit      :      0.03s CPU      0.03s WALL (       1 calls)
     potinit      :      0.23s CPU      0.25s WALL (       1 calls)
     hinit0       :      0.17s CPU      0.17s WALL (       1 calls)

     Called by electrons:
     c_bands      :      0.50s CPU      0.51s WALL (      10 calls)
     sum_band     :      0.07s CPU      0.08s WALL (      10 calls)
     v_of_rho     :      0.01s CPU      0.02s WALL (      11 calls)
     newd         :      0.02s CPU      0.02s WALL (      11 calls)
     PAW_pot      :      2.57s CPU      2.68s WALL (      11 calls)
     mix_rho      :      0.00s CPU      0.00s WALL (      10 calls)

     Called by c_bands:
     init_us_2    :      0.04s CPU      0.03s WALL (     322 calls)
     cegterg      :      0.45s CPU      0.46s WALL (     140 calls)

     Called by sum_band:
     sum_band:bec :      0.00s CPU      0.00s WALL (     140 calls)
     addusdens    :      0.01s CPU      0.01s WALL (      10 calls)

     Called by *egterg:
     h_psi        :      0.32s CPU      0.30s WALL (     450 calls)
     s_psi        :      0.02s CPU      0.03s WALL (     450 calls)
     g_psi        :      0.01s CPU      0.01s WALL (     296 calls)
     cdiaghg      :      0.06s CPU      0.07s WALL (     436 calls)

     Called by h_psi:
     h_psi:pot    :      0.32s CPU      0.30s WALL (     450 calls)
     h_psi:calbec :      0.05s CPU      0.03s WALL (     450 calls)
     vloc_psi     :      0.25s CPU      0.24s WALL (     450 calls)
     add_vuspsi   :      0.02s CPU      0.03s WALL (     450 calls)

     General routines
     calbec       :      0.05s CPU      0.04s WALL (     660 calls)
     fft          :      0.00s CPU      0.00s WALL (     147 calls)
     ffts         :      0.00s CPU      0.00s WALL (      10 calls)
     fftw         :      0.26s CPU      0.24s WALL (    9076 calls)

     Parallel routines

     PWSCF        :     3.86s CPU         4.02s WALL


   This run was terminated on:   0:43:55  30Oct2019            

=------------------------------------------------------------------------------=
   JOB DONE.
=------------------------------------------------------------------------------=
