
     Program PWSCF v.6.3 starts on 30Oct2019 at  0:43:21 

     This program is part of the open-source Quantum ESPRESSO suite
     for quantum simulation of materials; please cite
         "P. Giannozzi et al., J. Phys.:Condens. Matter 21 395502 (2009);
         "P. Giannozzi et al., J. Phys.:Condens. Matter 29 465901 (2017);
          URL http://www.quantum-espresso.org", 
     in publications or presentations arising from this work. More details at
     http://www.quantum-espresso.org/quote

     Parallel version (MPI), running on     1 processors

     MPI processes distributed on     1 nodes
     Reading input from /cloud/Code/python/py_pwscf_converge/src/example2/wd/runpwscf/file_10258.in
Warning: card &IONS ignored
Warning: card ION_DYNAMICS = 'BFGS', ignored
Warning: card / ignored
Warning: card &CELL ignored
Warning: card CELL_DYNAMICS = 'BFGS', ignored
Warning: card CELL_FACTOR = 2.0, ignored
Warning: card PRESS = 0.0, ignored
Warning: card / ignored

     Current dimensions of program PWSCF are:
     Max number of different atomic species (ntypx) = 10
     Max number of k-points (npk) =  40000
     Max angular momentum in pseudopotentials (lmaxx) =  3
               file Al.pbe-nl-kjpaw_psl.1.0.0.UPF: wavefunction(s)  3S 3P renormalized

     Subspace diagonalization in iterative solution of the eigenvalue problem:
     a serial algorithm will be used


     G-vector sticks info
     --------------------
     sticks:   dense  smooth     PW     G-vecs:    dense   smooth      PW
     Sum         121     121     81                  949      949     515



     bravais-lattice index     =            0
     lattice parameter (alat)  =       4.0400  a.u.
     unit-cell volume          =      65.9393 (a.u.)^3
     number of atoms/cell      =            4
     number of atomic types    =            1
     number of electrons       =        12.00
     number of Kohn-Sham states=           10
     kinetic-energy cutoff     =      42.0000  Ry
     charge density cutoff     =      90.0000  Ry
     convergence threshold     =      1.0E-06
     mixing beta               =       0.1000
     number of iterations used =           10  TF        mixing
     Exchange-correlation      = SLA PW PBX PBC ( 1  4  3  4 0 0)

     celldm(1)=   4.040000  celldm(2)=   0.000000  celldm(3)=   0.000000
     celldm(4)=   0.000000  celldm(5)=   0.000000  celldm(6)=   0.000000

     crystal axes: (cart. coord. in units of alat)
               a(1) = (   1.000000   0.000000   0.000000 )  
               a(2) = (   0.000000   1.000000   0.000000 )  
               a(3) = (   0.000000   0.000000   1.000000 )  

     reciprocal axes: (cart. coord. in units 2 pi/alat)
               b(1) = (  1.000000  0.000000  0.000000 )  
               b(2) = (  0.000000  1.000000  0.000000 )  
               b(3) = (  0.000000  0.000000  1.000000 )  


     PseudoPot. # 1 for Al read from file:
     /opt/pp/Al.pbe-nl-kjpaw_psl.1.0.0.UPF
     MD5 check sum: 1b67f78b73fe58c7924490f171ce8a1e
     Pseudo is Projector augmented-wave + core cor, Zval =  3.0
     Generated using "atomic" code by A. Dal Corso v.6.3
     Shape of augmentation charge: PSQ
     Using radial grid of 1135 points,  4 beta functions with: 
                l(1) =   0
                l(2) =   0
                l(3) =   1
                l(4) =   1
     Q(r) pseudized with 0 coefficients 


     atomic species   valence    mass     pseudopotential
        Al             3.00    26.98200     Al( 1.00)

     No symmetry found



   Cartesian axes

     site n.     atom                  positions (alat units)
         1           Al  tau(   1) = (  -0.0001235   0.0000359   0.0002572  )
         2           Al  tau(   2) = (   0.5003009   0.4992819   0.0002658  )
         3           Al  tau(   3) = (   0.4996490   0.0001153   0.5011170  )
         4           Al  tau(   4) = (  -0.0000756   0.5008267   0.5006943  )

     number of k points=    14  Marzari-Vanderbilt smearing, width (Ry)=  0.0020
                       cart. coord. in units 2pi/alat
        k(    1) = (   0.1666667   0.1666667   0.1666667), wk =   0.1481481
        k(    2) = (   0.1666667   0.1666667  -0.5000000), wk =   0.1481481
        k(    3) = (   0.1666667  -0.5000000  -0.5000000), wk =   0.1481481
        k(    4) = (  -0.5000000  -0.5000000  -0.5000000), wk =   0.0740741
        k(    5) = (  -0.1666667  -0.1666667   0.1666667), wk =   0.1481481
        k(    6) = (  -0.1666667   0.1666667  -0.1666667), wk =   0.1481481
        k(    7) = (   0.1666667  -0.1666667  -0.1666667), wk =   0.1481481
        k(    8) = (  -0.1666667   0.1666667   0.5000000), wk =   0.1481481
        k(    9) = (  -0.5000000  -0.1666667   0.1666667), wk =   0.1481481
        k(   10) = (   0.5000000  -0.1666667  -0.1666667), wk =   0.1481481
        k(   11) = (  -0.1666667  -0.5000000   0.1666667), wk =   0.1481481
        k(   12) = (  -0.1666667   0.5000000  -0.1666667), wk =   0.1481481
        k(   13) = (  -0.5000000   0.1666667   0.5000000), wk =   0.1481481
        k(   14) = (  -0.5000000   0.5000000   0.1666667), wk =   0.1481481

     Dense  grid:      949 G-vectors     FFT dimensions: (  15,  15,  15)

     Estimated max dynamical RAM per process >       2.44 MB

     Initial potential from superposition of free atoms

     starting charge   11.99084, renormalised to   12.00000
     Starting wfcs are   16 randomized atomic wfcs
     Checking if some PAW data can be deallocated... 

     total cpu time spent up to now is        0.9 secs

     Self-consistent Calculation

     iteration #  1     ecut=    42.00 Ry     beta= 0.10
     Davidson diagonalization with overlap
     ethr =  1.00E-02,  avg # of iterations =  3.6

     total cpu time spent up to now is        1.2 secs

     total energy              =    -141.65033700 Ry
     Harris-Foulkes estimate   =    -141.80680527 Ry
     estimated scf accuracy    <       0.18678853 Ry

     iteration #  2     ecut=    42.00 Ry     beta= 0.10
     Davidson diagonalization with overlap
     ethr =  1.56E-03,  avg # of iterations =  1.2

     total cpu time spent up to now is        1.5 secs

     total energy              =    -141.15370615 Ry
     Harris-Foulkes estimate   =    -141.65403834 Ry
     estimated scf accuracy    <       0.16049521 Ry

     iteration #  3     ecut=    42.00 Ry     beta= 0.10
     Davidson diagonalization with overlap
     ethr =  1.34E-03,  avg # of iterations =  2.4

     total cpu time spent up to now is        1.8 secs

     total energy              =    -141.21572620 Ry
     Harris-Foulkes estimate   =    -141.24548207 Ry
     estimated scf accuracy    <       0.02427618 Ry

     iteration #  4     ecut=    42.00 Ry     beta= 0.10
     Davidson diagonalization with overlap
     ethr =  2.02E-04,  avg # of iterations =  1.7

     total cpu time spent up to now is        2.1 secs

     total energy              =    -141.22472420 Ry
     Harris-Foulkes estimate   =    -141.21722678 Ry
     estimated scf accuracy    <       0.01758058 Ry

     iteration #  5     ecut=    42.00 Ry     beta= 0.10
     Davidson diagonalization with overlap
     ethr =  1.47E-04,  avg # of iterations =  1.4

     total cpu time spent up to now is        2.4 secs

     total energy              =    -141.21960053 Ry
     Harris-Foulkes estimate   =    -141.22678110 Ry
     estimated scf accuracy    <       0.00054996 Ry

     iteration #  6     ecut=    42.00 Ry     beta= 0.10
     Davidson diagonalization with overlap
     ethr =  4.58E-06,  avg # of iterations =  2.6

     total cpu time spent up to now is        2.7 secs

     total energy              =    -141.22069118 Ry
     Harris-Foulkes estimate   =    -141.22004487 Ry
     estimated scf accuracy    <       0.00036753 Ry

     iteration #  7     ecut=    42.00 Ry     beta= 0.10
     Davidson diagonalization with overlap
     ethr =  3.06E-06,  avg # of iterations =  1.3

     total cpu time spent up to now is        3.0 secs

     total energy              =    -141.22055819 Ry
     Harris-Foulkes estimate   =    -141.22071954 Ry
     estimated scf accuracy    <       0.00001577 Ry

     iteration #  8     ecut=    42.00 Ry     beta= 0.10
     Davidson diagonalization with overlap
     ethr =  1.31E-07,  avg # of iterations =  2.6

     total cpu time spent up to now is        3.3 secs

     total energy              =    -141.21992621 Ry
     Harris-Foulkes estimate   =    -141.22056311 Ry
     estimated scf accuracy    <       0.00001220 Ry

     iteration #  9     ecut=    42.00 Ry     beta= 0.10
     Davidson diagonalization with overlap
     ethr =  1.02E-07,  avg # of iterations =  3.7

     total cpu time spent up to now is        3.7 secs

     total energy              =    -141.21994842 Ry
     Harris-Foulkes estimate   =    -141.21995924 Ry
     estimated scf accuracy    <       0.00000341 Ry

     iteration # 10     ecut=    42.00 Ry     beta= 0.10
     Davidson diagonalization with overlap
     ethr =  2.84E-08,  avg # of iterations =  1.0

     total cpu time spent up to now is        3.9 secs

     total energy              =    -141.21992878 Ry
     Harris-Foulkes estimate   =    -141.21994852 Ry
     estimated scf accuracy    <       0.00000220 Ry

     iteration # 11     ecut=    42.00 Ry     beta= 0.10
     Davidson diagonalization with overlap
     ethr =  1.83E-08,  avg # of iterations =  2.6

     total cpu time spent up to now is        4.3 secs

     End of self-consistent calculation

          k = 0.1667 0.1667 0.1667 (   293 PWs)   bands (ev):

    32.1099  41.9753  41.9985  42.0182  52.3351  52.3542  52.3808  55.7055
    55.7115  55.7209

          k = 0.1667 0.1667-0.5000 (   302 PWs)   bands (ev):

    37.4314  37.4742  44.7809  44.7813  50.7753  50.7791  56.2516  56.2537
    57.3467  57.3879

          k = 0.1667-0.5000-0.5000 (   312 PWs)   bands (ev):

    41.7637  41.7747  41.8154  41.8188  51.9611  51.9707  51.9947  52.0029
    63.6886  63.6982

          k =-0.5000-0.5000-0.5000 (   304 PWs)   bands (ev):

    44.9415  44.9433  44.9464  44.9476  45.8145  45.8156  45.8193  45.8206
    75.1968  75.2009

          k =-0.1667-0.1667 0.1667 (   293 PWs)   bands (ev):

    32.1099  41.9797  41.9987  42.0136  52.3388  52.3559  52.3751  55.7061
    55.7132  55.7187

          k =-0.1667 0.1667-0.1667 (   293 PWs)   bands (ev):

    32.1100  41.9839  41.9985  42.0096  52.3442  52.3542  52.3715  55.7086
    55.7111  55.7184

          k = 0.1667-0.1667-0.1667 (   293 PWs)   bands (ev):

    32.1099  41.9816  41.9990  42.0115  52.3412  52.3558  52.3732  55.7068
    55.7130  55.7181

          k =-0.1667 0.1667 0.5000 (   302 PWs)   bands (ev):

    37.4314  37.4743  44.7810  44.7816  50.7755  50.7781  56.2515  56.2542
    57.3467  57.3880

          k =-0.5000-0.1667 0.1667 (   302 PWs)   bands (ev):

    37.4503  37.4554  44.7810  44.7817  50.7760  50.7774  56.2520  56.2543
    57.3646  57.3697

          k = 0.5000-0.1667-0.1667 (   302 PWs)   bands (ev):

    37.4503  37.4553  44.7811  44.7813  50.7759  50.7786  56.2516  56.2524
    57.3655  57.3705

          k =-0.1667-0.5000 0.1667 (   302 PWs)   bands (ev):

    37.4504  37.4553  44.7797  44.7834  50.7746  50.7793  56.2497  56.2554
    57.3643  57.3709

          k =-0.1667 0.5000-0.1667 (   302 PWs)   bands (ev):

    37.4505  37.4553  44.7797  44.7833  50.7741  50.7799  56.2505  56.2552
    57.3643  57.3705

          k =-0.5000 0.1667 0.5000 (   312 PWs)   bands (ev):

    41.7674  41.7756  41.8102  41.8189  51.9694  51.9784  51.9863  51.9956
    63.6948  63.7013

          k =-0.5000 0.5000 0.1667 (   312 PWs)   bands (ev):

    41.7750  41.7837  41.8016  41.8123  51.9583  51.9706  51.9939  52.0066
    63.6945  63.7153

     the Fermi energy is    52.3305 ev

!    total energy              =    -141.21993030 Ry
     Harris-Foulkes estimate   =    -141.21993045 Ry
     estimated scf accuracy    <       0.00000092 Ry

     total all-electron energy =     -1925.791052 Ry

     The total energy is the sum of the following terms:

     one-electron contribution =      58.80574065 Ry
     hartree contribution      =       0.23185772 Ry
     xc contribution           =     -17.30914354 Ry
     ewald contribution        =     -40.85514773 Ry
     one-center paw contrib.   =    -142.09301251 Ry
     smearing contrib. (-TS)   =      -0.00022489 Ry

     convergence has been achieved in  11 iterations

     Forces acting on atoms (cartesian axes, Ry/au):

     atom    1 type  1   force =     0.00266698   -0.00199129    0.01541335
     atom    2 type  1   force =     0.00594143   -0.01637757    0.01702286
     atom    3 type  1   force =    -0.00968143    0.00094133   -0.01146782
     atom    4 type  1   force =     0.00107302    0.01742754   -0.02096839

     Total force =     0.042575     Total SCF correction =     0.000038


     Computing stress (Cartesian axis) and pressure

          total   stress  (Ry/bohr**3)                   (kbar)     P=60745.91
   0.41303007   0.00015347   0.00003870      60758.81     22.58      5.69
   0.00015347   0.41260798   0.00008688         22.58  60696.72     12.78
   0.00003870   0.00008688   0.41318909          5.69     12.78  60782.20


     Writing output data file fe_scf_fcc_2.save/

     init_run     :      0.45s CPU      0.46s WALL (       1 calls)
     electrons    :      3.26s CPU      3.35s WALL (       1 calls)
     forces       :      0.01s CPU      0.02s WALL (       1 calls)
     stress       :      0.04s CPU      0.04s WALL (       1 calls)

     Called by init_run:
     wfcinit      :      0.03s CPU      0.03s WALL (       1 calls)
     potinit      :      0.24s CPU      0.25s WALL (       1 calls)
     hinit0       :      0.18s CPU      0.17s WALL (       1 calls)

     Called by electrons:
     c_bands      :      0.52s CPU      0.55s WALL (      11 calls)
     sum_band     :      0.10s CPU      0.09s WALL (      11 calls)
     v_of_rho     :      0.01s CPU      0.03s WALL (      12 calls)
     newd         :      0.00s CPU      0.02s WALL (      12 calls)
     PAW_pot      :      2.86s CPU      2.90s WALL (      12 calls)
     mix_rho      :      0.00s CPU      0.00s WALL (      11 calls)

     Called by c_bands:
     init_us_2    :      0.01s CPU      0.03s WALL (     350 calls)
     cegterg      :      0.50s CPU      0.50s WALL (     154 calls)

     Called by sum_band:
     sum_band:bec :      0.00s CPU      0.00s WALL (     154 calls)
     addusdens    :      0.02s CPU      0.01s WALL (      11 calls)

     Called by *egterg:
     h_psi        :      0.33s CPU      0.32s WALL (     507 calls)
     s_psi        :      0.01s CPU      0.03s WALL (     507 calls)
     g_psi        :      0.00s CPU      0.01s WALL (     339 calls)
     cdiaghg      :      0.08s CPU      0.08s WALL (     493 calls)

     Called by h_psi:
     h_psi:pot    :      0.33s CPU      0.32s WALL (     507 calls)
     h_psi:calbec :      0.04s CPU      0.03s WALL (     507 calls)
     vloc_psi     :      0.26s CPU      0.26s WALL (     507 calls)
     add_vuspsi   :      0.03s CPU      0.03s WALL (     507 calls)

     General routines
     calbec       :      0.05s CPU      0.04s WALL (     731 calls)
     fft          :      0.00s CPU      0.00s WALL (     158 calls)
     ffts         :      0.00s CPU      0.00s WALL (      11 calls)
     fftw         :      0.24s CPU      0.25s WALL (    9942 calls)

     Parallel routines

     PWSCF        :     4.20s CPU         4.32s WALL


   This run was terminated on:   0:43:26  30Oct2019            

=------------------------------------------------------------------------------=
   JOB DONE.
=------------------------------------------------------------------------------=
