
     Program PWSCF v.6.3 starts on 30Oct2019 at  0:44:24 

     This program is part of the open-source Quantum ESPRESSO suite
     for quantum simulation of materials; please cite
         "P. Giannozzi et al., J. Phys.:Condens. Matter 21 395502 (2009);
         "P. Giannozzi et al., J. Phys.:Condens. Matter 29 465901 (2017);
          URL http://www.quantum-espresso.org", 
     in publications or presentations arising from this work. More details at
     http://www.quantum-espresso.org/quote

     Parallel version (MPI), running on     1 processors

     MPI processes distributed on     1 nodes
     Reading input from /cloud/Code/python/py_pwscf_converge/src/example2/wd/runpwscf/file_10270.in
Warning: card &IONS ignored
Warning: card ION_DYNAMICS = 'BFGS', ignored
Warning: card / ignored
Warning: card &CELL ignored
Warning: card CELL_DYNAMICS = 'BFGS', ignored
Warning: card CELL_FACTOR = 2.0, ignored
Warning: card PRESS = 0.0, ignored
Warning: card / ignored

     Current dimensions of program PWSCF are:
     Max number of different atomic species (ntypx) = 10
     Max number of k-points (npk) =  40000
     Max angular momentum in pseudopotentials (lmaxx) =  3
               file Al.pbe-nl-kjpaw_psl.1.0.0.UPF: wavefunction(s)  3S 3P renormalized

     Subspace diagonalization in iterative solution of the eigenvalue problem:
     a serial algorithm will be used


     G-vector sticks info
     --------------------
     sticks:   dense  smooth     PW     G-vecs:    dense   smooth      PW
     Sum         121     121     81                  949      949     515



     bravais-lattice index     =            0
     lattice parameter (alat)  =       4.0400  a.u.
     unit-cell volume          =      65.9393 (a.u.)^3
     number of atoms/cell      =            4
     number of atomic types    =            1
     number of electrons       =        12.00
     number of Kohn-Sham states=           10
     kinetic-energy cutoff     =      42.0000  Ry
     charge density cutoff     =      90.0000  Ry
     convergence threshold     =      1.0E-06
     mixing beta               =       0.1000
     number of iterations used =           10  TF        mixing
     Exchange-correlation      = SLA PW PBX PBC ( 1  4  3  4 0 0)

     celldm(1)=   4.040000  celldm(2)=   0.000000  celldm(3)=   0.000000
     celldm(4)=   0.000000  celldm(5)=   0.000000  celldm(6)=   0.000000

     crystal axes: (cart. coord. in units of alat)
               a(1) = (   1.000000   0.000000   0.000000 )  
               a(2) = (   0.000000   1.000000   0.000000 )  
               a(3) = (   0.000000   0.000000   1.000000 )  

     reciprocal axes: (cart. coord. in units 2 pi/alat)
               b(1) = (  1.000000  0.000000  0.000000 )  
               b(2) = (  0.000000  1.000000  0.000000 )  
               b(3) = (  0.000000  0.000000  1.000000 )  


     PseudoPot. # 1 for Al read from file:
     /opt/pp/Al.pbe-nl-kjpaw_psl.1.0.0.UPF
     MD5 check sum: 1b67f78b73fe58c7924490f171ce8a1e
     Pseudo is Projector augmented-wave + core cor, Zval =  3.0
     Generated using "atomic" code by A. Dal Corso v.6.3
     Shape of augmentation charge: PSQ
     Using radial grid of 1135 points,  4 beta functions with: 
                l(1) =   0
                l(2) =   0
                l(3) =   1
                l(4) =   1
     Q(r) pseudized with 0 coefficients 


     atomic species   valence    mass     pseudopotential
        Al             3.00    26.98200     Al( 1.00)

     No symmetry found



   Cartesian axes

     site n.     atom                  positions (alat units)
         1           Al  tau(   1) = (  -0.0001235   0.0000359   0.0002572  )
         2           Al  tau(   2) = (   0.5003009   0.4992819   0.0002658  )
         3           Al  tau(   3) = (   0.4996490   0.0001153   0.5011170  )
         4           Al  tau(   4) = (  -0.0000756   0.5008267   0.5006943  )

     number of k points=    63  Marzari-Vanderbilt smearing, width (Ry)=  0.0070
                       cart. coord. in units 2pi/alat
        k(    1) = (   0.1000000   0.1000000   0.1000000), wk =   0.0320000
        k(    2) = (   0.1000000   0.1000000   0.3000000), wk =   0.0320000
        k(    3) = (   0.1000000   0.1000000  -0.5000000), wk =   0.0320000
        k(    4) = (   0.1000000   0.3000000   0.3000000), wk =   0.0320000
        k(    5) = (   0.1000000   0.3000000  -0.5000000), wk =   0.0320000
        k(    6) = (   0.1000000  -0.5000000  -0.5000000), wk =   0.0320000
        k(    7) = (   0.3000000   0.3000000   0.3000000), wk =   0.0320000
        k(    8) = (   0.3000000   0.3000000  -0.5000000), wk =   0.0320000
        k(    9) = (   0.3000000  -0.5000000  -0.5000000), wk =   0.0320000
        k(   10) = (  -0.5000000  -0.5000000  -0.5000000), wk =   0.0160000
        k(   11) = (  -0.1000000  -0.1000000   0.1000000), wk =   0.0320000
        k(   12) = (  -0.1000000   0.1000000  -0.1000000), wk =   0.0320000
        k(   13) = (   0.1000000  -0.1000000  -0.1000000), wk =   0.0320000
        k(   14) = (  -0.1000000  -0.1000000   0.3000000), wk =   0.0320000
        k(   15) = (  -0.1000000   0.1000000  -0.3000000), wk =   0.0320000
        k(   16) = (   0.1000000  -0.1000000  -0.3000000), wk =   0.0320000
        k(   17) = (   0.3000000  -0.1000000   0.1000000), wk =   0.0320000
        k(   18) = (  -0.3000000  -0.1000000  -0.1000000), wk =   0.0320000
        k(   19) = (   0.3000000   0.1000000  -0.1000000), wk =   0.0320000
        k(   20) = (  -0.3000000   0.1000000   0.1000000), wk =   0.0320000
        k(   21) = (  -0.1000000   0.3000000   0.1000000), wk =   0.0320000
        k(   22) = (  -0.1000000  -0.3000000  -0.1000000), wk =   0.0320000
        k(   23) = (   0.1000000   0.3000000  -0.1000000), wk =   0.0320000
        k(   24) = (   0.1000000  -0.3000000   0.1000000), wk =   0.0320000
        k(   25) = (  -0.1000000   0.1000000   0.5000000), wk =   0.0320000
        k(   26) = (  -0.5000000  -0.1000000   0.1000000), wk =   0.0320000
        k(   27) = (   0.5000000  -0.1000000  -0.1000000), wk =   0.0320000
        k(   28) = (  -0.1000000  -0.5000000   0.1000000), wk =   0.0320000
        k(   29) = (  -0.1000000   0.5000000  -0.1000000), wk =   0.0320000
        k(   30) = (  -0.1000000  -0.3000000   0.3000000), wk =   0.0320000
        k(   31) = (  -0.1000000   0.3000000  -0.3000000), wk =   0.0320000
        k(   32) = (   0.1000000  -0.3000000  -0.3000000), wk =   0.0320000
        k(   33) = (   0.3000000   0.1000000  -0.3000000), wk =   0.0320000
        k(   34) = (  -0.3000000  -0.1000000  -0.3000000), wk =   0.0320000
        k(   35) = (   0.3000000  -0.1000000   0.3000000), wk =   0.0320000
        k(   36) = (  -0.3000000   0.1000000   0.3000000), wk =   0.0320000
        k(   37) = (   0.3000000  -0.3000000   0.1000000), wk =   0.0320000
        k(   38) = (  -0.3000000  -0.3000000  -0.1000000), wk =   0.0320000
        k(   39) = (   0.3000000   0.3000000  -0.1000000), wk =   0.0320000
        k(   40) = (  -0.3000000   0.3000000   0.1000000), wk =   0.0320000
        k(   41) = (  -0.1000000   0.3000000   0.5000000), wk =   0.0320000
        k(   42) = (   0.3000000   0.1000000   0.5000000), wk =   0.0320000
        k(   43) = (   0.3000000  -0.1000000  -0.5000000), wk =   0.0320000
        k(   44) = (  -0.5000000  -0.3000000   0.1000000), wk =   0.0320000
        k(   45) = (   0.5000000  -0.3000000  -0.1000000), wk =   0.0320000
        k(   46) = (  -0.1000000  -0.5000000   0.3000000), wk =   0.0320000
        k(   47) = (  -0.1000000   0.5000000  -0.3000000), wk =   0.0320000
        k(   48) = (   0.3000000  -0.5000000   0.1000000), wk =   0.0320000
        k(   49) = (   0.3000000   0.5000000  -0.1000000), wk =   0.0320000
        k(   50) = (  -0.5000000   0.1000000   0.3000000), wk =   0.0320000
        k(   51) = (   0.5000000  -0.1000000   0.3000000), wk =   0.0320000
        k(   52) = (  -0.5000000   0.1000000   0.5000000), wk =   0.0320000
        k(   53) = (  -0.5000000   0.5000000   0.1000000), wk =   0.0320000
        k(   54) = (  -0.3000000  -0.3000000   0.3000000), wk =   0.0320000
        k(   55) = (  -0.3000000   0.3000000  -0.3000000), wk =   0.0320000
        k(   56) = (   0.3000000  -0.3000000  -0.3000000), wk =   0.0320000
        k(   57) = (  -0.3000000   0.3000000   0.5000000), wk =   0.0320000
        k(   58) = (  -0.5000000  -0.3000000   0.3000000), wk =   0.0320000
        k(   59) = (   0.5000000  -0.3000000  -0.3000000), wk =   0.0320000
        k(   60) = (  -0.3000000  -0.5000000   0.3000000), wk =   0.0320000
        k(   61) = (  -0.3000000   0.5000000  -0.3000000), wk =   0.0320000
        k(   62) = (  -0.5000000   0.3000000   0.5000000), wk =   0.0320000
        k(   63) = (  -0.5000000   0.5000000   0.3000000), wk =   0.0320000

     Dense  grid:      949 G-vectors     FFT dimensions: (  15,  15,  15)

     Estimated max dynamical RAM per process >       4.71 MB

     Initial potential from superposition of free atoms

     starting charge   11.99084, renormalised to   12.00000
     Starting wfcs are   16 randomized atomic wfcs
     Checking if some PAW data can be deallocated... 

     total cpu time spent up to now is        1.0 secs

     Self-consistent Calculation

     iteration #  1     ecut=    42.00 Ry     beta= 0.10
     Davidson diagonalization with overlap
     ethr =  1.00E-02,  avg # of iterations =  4.7

     total cpu time spent up to now is        1.7 secs

     total energy              =    -141.66707675 Ry
     Harris-Foulkes estimate   =    -141.82172402 Ry
     estimated scf accuracy    <       0.18354096 Ry

     iteration #  2     ecut=    42.00 Ry     beta= 0.10
     Davidson diagonalization with overlap
     ethr =  1.53E-03,  avg # of iterations =  1.1

     total cpu time spent up to now is        2.2 secs

     total energy              =    -141.17604712 Ry
     Harris-Foulkes estimate   =    -141.67058007 Ry
     estimated scf accuracy    <       0.15333760 Ry

     iteration #  3     ecut=    42.00 Ry     beta= 0.10
     Davidson diagonalization with overlap
     ethr =  1.28E-03,  avg # of iterations =  2.0

     total cpu time spent up to now is        2.7 secs

     total energy              =    -141.24352772 Ry
     Harris-Foulkes estimate   =    -141.24599390 Ry
     estimated scf accuracy    <       0.01531888 Ry

     iteration #  4     ecut=    42.00 Ry     beta= 0.10
     Davidson diagonalization with overlap
     ethr =  1.28E-04,  avg # of iterations =  1.2

     total cpu time spent up to now is        3.1 secs

     total energy              =    -141.24800788 Ry
     Harris-Foulkes estimate   =    -141.24398680 Ry
     estimated scf accuracy    <       0.01182969 Ry

     iteration #  5     ecut=    42.00 Ry     beta= 0.10
     Davidson diagonalization with overlap
     ethr =  9.86E-05,  avg # of iterations =  2.0

     total cpu time spent up to now is        3.6 secs

     total energy              =    -141.25303578 Ry
     Harris-Foulkes estimate   =    -141.24962818 Ry
     estimated scf accuracy    <       0.00052105 Ry

     iteration #  6     ecut=    42.00 Ry     beta= 0.10
     Davidson diagonalization with overlap
     ethr =  4.34E-06,  avg # of iterations =  3.0

     total cpu time spent up to now is        4.1 secs

     total energy              =    -141.25069591 Ry
     Harris-Foulkes estimate   =    -141.25345809 Ry
     estimated scf accuracy    <       0.00009725 Ry

     iteration #  7     ecut=    42.00 Ry     beta= 0.10
     Davidson diagonalization with overlap
     ethr =  8.10E-07,  avg # of iterations =  2.5

     total cpu time spent up to now is        4.6 secs

     total energy              =    -141.24970906 Ry
     Harris-Foulkes estimate   =    -141.25079554 Ry
     estimated scf accuracy    <       0.00007745 Ry

     iteration #  8     ecut=    42.00 Ry     beta= 0.10
     Davidson diagonalization with overlap
     ethr =  6.45E-07,  avg # of iterations =  2.1

     total cpu time spent up to now is        5.1 secs

     total energy              =    -141.24943716 Ry
     Harris-Foulkes estimate   =    -141.24975503 Ry
     estimated scf accuracy    <       0.00000622 Ry

     iteration #  9     ecut=    42.00 Ry     beta= 0.10
     Davidson diagonalization with overlap
     ethr =  5.18E-08,  avg # of iterations =  3.6

     total cpu time spent up to now is        5.7 secs

     total energy              =    -141.24948910 Ry
     Harris-Foulkes estimate   =    -141.24949267 Ry
     estimated scf accuracy    <       0.00000501 Ry

     iteration # 10     ecut=    42.00 Ry     beta= 0.10
     Davidson diagonalization with overlap
     ethr =  4.18E-08,  avg # of iterations =  1.0

     total cpu time spent up to now is        6.2 secs

     total energy              =    -141.24947791 Ry
     Harris-Foulkes estimate   =    -141.24948915 Ry
     estimated scf accuracy    <       0.00000222 Ry

     iteration # 11     ecut=    42.00 Ry     beta= 0.10
     Davidson diagonalization with overlap
     ethr =  1.85E-08,  avg # of iterations =  2.0

     total cpu time spent up to now is        6.6 secs

     End of self-consistent calculation

          k = 0.1000 0.1000 0.1000 (   296 PWs)   bands (ev):

    30.4077  41.2163  41.2308  41.2475  52.3534  52.3699  52.3865  54.7211
    54.7298  54.7390

          k = 0.1000 0.1000 0.3000 (   304 PWs)   bands (ev):

    32.8103  39.8253  43.1375  43.1575  52.2199  52.2378  54.4513  54.4625
    54.6200  58.7254

          k = 0.1000 0.1000-0.5000 (   306 PWs)   bands (ev):

    36.5106  36.5517  44.5121  44.5123  52.1678  52.1680  54.2387  54.2389
    59.1421  59.2058

          k = 0.1000 0.3000 0.3000 (   297 PWs)   bands (ev):

    34.9693  41.6801  41.7175  44.5206  50.9236  53.2482  53.2967  55.4958
    58.4249  58.4270

          k = 0.1000 0.3000-0.5000 (   304 PWs)   bands (ev):

    38.4088  38.4514  44.0391  44.0622  51.6337  51.6398  56.4099  56.4413
    56.9994  57.0020

          k = 0.1000-0.5000-0.5000 (   308 PWs)   bands (ev):

    41.3899  41.3980  41.4380  41.4462  53.6166  53.6285  53.6573  53.6692
    61.3277  61.3339

          k = 0.3000 0.3000 0.3000 (   305 PWs)   bands (ev):

    36.8430  43.3792  43.4131  43.4482  49.7705  49.8086  49.8471  56.2864
    61.5646  61.5689

          k = 0.3000 0.3000-0.5000 (   304 PWs)   bands (ev):

    40.0176  40.0617  45.2953  45.2961  47.4938  47.4948  52.3316  52.3318
    63.0299  63.0301

          k = 0.3000-0.5000-0.5000 (   292 PWs)   bands (ev):

    42.8032  42.8128  42.8556  42.8653  48.8884  48.8997  48.9322  48.9437
    69.0182  69.0253

          k =-0.5000-0.5000-0.5000 (   304 PWs)   bands (ev):

    44.9392  44.9407  44.9427  44.9429  45.7593  45.7598  45.7621  45.7636
    75.1898  75.1911

          k =-0.1000-0.1000 0.1000 (   296 PWs)   bands (ev):

    30.4077  41.2194  41.2311  41.2441  52.3568  52.3699  52.3830  54.7229
    54.7300  54.7370

          k =-0.1000 0.1000-0.1000 (   296 PWs)   bands (ev):

    30.4077  41.2222  41.2319  41.2404  52.3603  52.3698  52.3796  54.7248
    54.7298  54.7353

          k = 0.1000-0.1000-0.1000 (   296 PWs)   bands (ev):

    30.4077  41.2207  41.2314  41.2424  52.3584  52.3700  52.3814  54.7238
    54.7300  54.7362

          k =-0.1000-0.1000 0.3000 (   304 PWs)   bands (ev):

    32.8103  39.8254  43.1374  43.1574  52.2200  52.2379  54.4514  54.4626
    54.6197  58.7254

          k =-0.1000 0.1000-0.3000 (   304 PWs)   bands (ev):

    32.8103  39.8253  43.1428  43.1520  52.2248  52.2330  54.4544  54.4595
    54.6198  58.7253

          k = 0.1000-0.1000-0.3000 (   304 PWs)   bands (ev):

    32.8103  39.8253  43.1429  43.1521  52.2248  52.2330  54.4544  54.4595
    54.6200  58.7253

          k = 0.3000-0.1000 0.1000 (   304 PWs)   bands (ev):

    32.8103  39.8253  43.1428  43.1521  52.2246  52.2329  54.4545  54.4597
    54.6199  58.7254

          k =-0.3000-0.1000-0.1000 (   304 PWs)   bands (ev):

    32.8103  39.8252  43.1390  43.1560  52.2213  52.2365  54.4518  54.4613
    54.6208  58.7254

          k = 0.3000 0.1000-0.1000 (   304 PWs)   bands (ev):

    32.8103  39.8252  43.1428  43.1521  52.2246  52.2329  54.4545  54.4597
    54.6199  58.7254

          k =-0.3000 0.1000 0.1000 (   304 PWs)   bands (ev):

    32.8103  39.8253  43.1389  43.1560  52.2214  52.2366  54.4519  54.4614
    54.6203  58.7254

          k =-0.1000 0.3000 0.1000 (   304 PWs)   bands (ev):

    32.8103  39.8252  43.1463  43.1489  52.2278  52.2301  54.4561  54.4576
    54.6198  58.7254

          k =-0.1000-0.3000-0.1000 (   304 PWs)   bands (ev):

    32.8103  39.8251  43.1426  43.1527  52.2244  52.2333  54.4541  54.4597
    54.6199  58.7254

          k = 0.1000 0.3000-0.1000 (   304 PWs)   bands (ev):

    32.8103  39.8251  43.1463  43.1489  52.2278  52.2301  54.4558  54.4574
    54.6203  58.7253

          k = 0.1000-0.3000 0.1000 (   304 PWs)   bands (ev):

    32.8103  39.8252  43.1426  43.1526  52.2245  52.2334  54.4541  54.4597
    54.6198  58.7254

          k =-0.1000 0.1000 0.5000 (   306 PWs)   bands (ev):

    36.5106  36.5517  44.5122  44.5123  52.1677  52.1679  54.2388  54.2389
    59.1421  59.2058

          k =-0.5000-0.1000 0.1000 (   306 PWs)   bands (ev):

    36.5287  36.5335  44.5122  44.5124  52.1676  52.1677  54.2390  54.2391
    59.1704  59.1776

          k = 0.5000-0.1000-0.1000 (   306 PWs)   bands (ev):

    36.5287  36.5335  44.5122  44.5124  52.1680  52.1680  54.2385  54.2387
    59.1705  59.1778

          k =-0.1000-0.5000 0.1000 (   306 PWs)   bands (ev):

    36.5304  36.5317  44.5124  44.5125  52.1677  52.1679  54.2387  54.2388
    59.1729  59.1751

          k =-0.1000 0.5000-0.1000 (   306 PWs)   bands (ev):

    36.5304  36.5317  44.5124  44.5126  52.1677  52.1678  54.2388  54.2389
    59.1728  59.1750

          k =-0.1000-0.3000 0.3000 (   297 PWs)   bands (ev):

    34.9692  41.6886  41.7090  44.5205  50.9239  53.2591  53.2856  55.4958
    58.4252  58.4264

          k =-0.1000 0.3000-0.3000 (   297 PWs)   bands (ev):

    34.9692  41.6886  41.7090  44.5204  50.9239  53.2591  53.2856  55.4958
    58.4253  58.4264

          k = 0.1000-0.3000-0.3000 (   297 PWs)   bands (ev):

    34.9693  41.6801  41.7175  44.5206  50.9238  53.2482  53.2967  55.4958
    58.4247  58.4268

          k = 0.3000 0.1000-0.3000 (   297 PWs)   bands (ev):

    34.9692  41.6959  41.7016  44.5205  50.9235  53.2689  53.2762  55.4959
    58.4257  58.4261

          k =-0.3000-0.1000-0.3000 (   297 PWs)   bands (ev):

    34.9693  41.6878  41.7098  44.5204  50.9238  53.2583  53.2869  55.4959
    58.4250  58.4263

          k = 0.3000-0.1000 0.3000 (   297 PWs)   bands (ev):

    34.9692  41.6879  41.7098  44.5203  50.9237  53.2582  53.2867  55.4960
    58.4252  58.4264

          k =-0.3000 0.1000 0.3000 (   297 PWs)   bands (ev):

    34.9692  41.6960  41.7016  44.5204  50.9237  53.2690  53.2763  55.4958
    58.4253  58.4259

          k = 0.3000-0.3000 0.1000 (   297 PWs)   bands (ev):

    34.9693  41.6887  41.7088  44.5205  50.9235  53.2593  53.2854  55.4959
    58.4254  58.4265

          k =-0.3000-0.3000-0.1000 (   297 PWs)   bands (ev):

    34.9693  41.6769  41.7208  44.5205  50.9238  53.2439  53.3010  55.4957
    58.4246  58.4272

          k = 0.3000 0.3000-0.1000 (   297 PWs)   bands (ev):

    34.9693  41.6769  41.7208  44.5205  50.9237  53.2438  53.3009  55.4960
    58.4246  58.4272

          k =-0.3000 0.3000 0.1000 (   297 PWs)   bands (ev):

    34.9693  41.6887  41.7088  44.5205  50.9238  53.2594  53.2856  55.4954
    58.4253  58.4265

          k =-0.1000 0.3000 0.5000 (   304 PWs)   bands (ev):

    38.4088  38.4514  44.0391  44.0623  51.6337  51.6397  56.4097  56.4410
    56.9996  57.0023

          k = 0.3000 0.1000 0.5000 (   304 PWs)   bands (ev):

    38.4088  38.4514  44.0390  44.0622  51.6338  51.6399  56.4102  56.4415
    56.9992  57.0018

          k = 0.3000-0.1000-0.5000 (   304 PWs)   bands (ev):

    38.4088  38.4514  44.0391  44.0622  51.6337  51.6398  56.4101  56.4414
    56.9993  57.0020

          k =-0.5000-0.3000 0.1000 (   304 PWs)   bands (ev):

    38.4275  38.4326  44.0493  44.0521  51.6361  51.6369  56.4244  56.4279
    57.0003  57.0005

          k = 0.5000-0.3000-0.1000 (   304 PWs)   bands (ev):

    38.4275  38.4326  44.0493  44.0521  51.6364  51.6373  56.4216  56.4256
    57.0017  57.0037

          k =-0.1000-0.5000 0.3000 (   304 PWs)   bands (ev):

    38.4293  38.4307  44.0505  44.0512  51.6366  51.6368  56.4242  56.4259
    57.0005  57.0019

          k =-0.1000 0.5000-0.3000 (   304 PWs)   bands (ev):

    38.4293  38.4307  44.0504  44.0512  51.6366  51.6368  56.4245  56.4261
    57.0002  57.0017

          k = 0.3000-0.5000 0.1000 (   304 PWs)   bands (ev):

    38.4294  38.4307  44.0504  44.0511  51.6364  51.6368  56.4241  56.4263
    57.0002  57.0021

          k = 0.3000 0.5000-0.1000 (   304 PWs)   bands (ev):

    38.4294  38.4307  44.0504  44.0511  51.6366  51.6368  56.4225  56.4261
    57.0003  57.0037

          k =-0.5000 0.1000 0.3000 (   304 PWs)   bands (ev):

    38.4275  38.4326  44.0493  44.0521  51.6365  51.6373  56.4234  56.4270
    57.0005  57.0017

          k = 0.5000-0.1000 0.3000 (   304 PWs)   bands (ev):

    38.4275  38.4326  44.0493  44.0521  51.6363  51.6371  56.4243  56.4278
    57.0003  57.0006

          k =-0.5000 0.1000 0.5000 (   308 PWs)   bands (ev):

    41.3926  41.4016  41.4344  41.4434  53.6274  53.6389  53.6472  53.6586
    61.3319  61.3374

          k =-0.5000 0.5000 0.1000 (   308 PWs)   bands (ev):

    41.3971  41.4084  41.4276  41.4389  53.6120  53.6288  53.6570  53.6736
    61.3273  61.3354

          k =-0.3000-0.3000 0.3000 (   305 PWs)   bands (ev):

    36.8430  43.3863  43.4133  43.4408  49.7784  49.8087  49.8389  56.2865
    61.5654  61.5688

          k =-0.3000 0.3000-0.3000 (   305 PWs)   bands (ev):

    36.8430  43.3932  43.4137  43.4335  49.7863  49.8085  49.8311  56.2865
    61.5662  61.5687

          k = 0.3000-0.3000-0.3000 (   305 PWs)   bands (ev):

    36.8430  43.3896  43.4134  43.4374  49.7822  49.8088  49.8354  56.2862
    61.5658  61.5689

          k =-0.3000 0.3000 0.5000 (   304 PWs)   bands (ev):

    40.0176  40.0616  45.2958  45.2962  47.4938  47.4942  52.3316  52.3319
    63.0300  63.0301

          k =-0.5000-0.3000 0.3000 (   304 PWs)   bands (ev):

    40.0369  40.0422  45.2960  45.2962  47.4937  47.4939  52.3317  52.3319
    63.0300  63.0301

          k = 0.5000-0.3000-0.3000 (   304 PWs)   bands (ev):

    40.0369  40.0422  45.2957  45.2960  47.4941  47.4943  52.3316  52.3318
    63.0299  63.0301

          k =-0.3000-0.5000 0.3000 (   304 PWs)   bands (ev):

    40.0388  40.0402  45.2961  45.2964  47.4938  47.4939  52.3316  52.3318
    63.0299  63.0302

          k =-0.3000 0.5000-0.3000 (   304 PWs)   bands (ev):

    40.0389  40.0402  45.2960  45.2963  47.4938  47.4940  52.3316  52.3319
    63.0299  63.0301

          k =-0.5000 0.3000 0.5000 (   292 PWs)   bands (ev):

    42.8070  42.8175  42.8510  42.8613  48.8965  48.9078  48.9244  48.9355
    69.0212  69.0293

          k =-0.5000 0.5000 0.3000 (   292 PWs)   bands (ev):

    42.8092  42.8227  42.8457  42.8592  48.8865  48.9025  48.9296  48.9455
    69.0211  69.0339

     the Fermi energy is    52.3667 ev

!    total energy              =    -141.24947641 Ry
     Harris-Foulkes estimate   =    -141.24947854 Ry
     estimated scf accuracy    <       0.00000045 Ry

     total all-electron energy =     -1925.820599 Ry

     The total energy is the sum of the following terms:

     one-electron contribution =      58.70741545 Ry
     hartree contribution      =       0.21807724 Ry
     xc contribution           =     -17.29353652 Ry
     ewald contribution        =     -40.85514773 Ry
     one-center paw contrib.   =    -142.02664332 Ry
     smearing contrib. (-TS)   =       0.00035848 Ry

     convergence has been achieved in  11 iterations

     Forces acting on atoms (cartesian axes, Ry/au):

     atom    1 type  1   force =     0.00202325   -0.00036260    0.01645261
     atom    2 type  1   force =    -0.00338007    0.00398760    0.01641444
     atom    3 type  1   force =    -0.00045337   -0.00070841   -0.01738499
     atom    4 type  1   force =     0.00181018   -0.00291660   -0.01548206

     Total force =     0.033557     Total SCF correction =     0.000007


     Computing stress (Cartesian axis) and pressure

          total   stress  (Ry/bohr**3)                   (kbar)     P=60051.69
   0.40823163   0.00000011   0.00000009      60052.94      0.02      0.01
   0.00000011   0.40821260   0.00000009          0.02  60050.14      0.01
   0.00000009   0.00000009   0.40822528          0.01      0.01  60052.00


     Writing output data file fe_scf_fcc_2.save/

     init_run     :      0.56s CPU      0.58s WALL (       1 calls)
     electrons    :      5.42s CPU      5.63s WALL (       1 calls)
     forces       :      0.04s CPU      0.04s WALL (       1 calls)
     stress       :      0.14s CPU      0.14s WALL (       1 calls)

     Called by init_run:
     wfcinit      :      0.14s CPU      0.15s WALL (       1 calls)
     potinit      :      0.24s CPU      0.25s WALL (       1 calls)
     hinit0       :      0.17s CPU      0.18s WALL (       1 calls)

     Called by electrons:
     c_bands      :      2.45s CPU      2.55s WALL (      11 calls)
     sum_band     :      0.36s CPU      0.37s WALL (      11 calls)
     v_of_rho     :      0.02s CPU      0.03s WALL (      12 calls)
     newd         :      0.02s CPU      0.02s WALL (      12 calls)
     PAW_pot      :      2.80s CPU      2.92s WALL (      12 calls)
     mix_rho      :      0.00s CPU      0.00s WALL (      11 calls)

     Called by c_bands:
     init_us_2    :      0.13s CPU      0.15s WALL (    1575 calls)
     cegterg      :      2.17s CPU      2.31s WALL (     693 calls)

     Called by sum_band:
     sum_band:bec :      0.00s CPU      0.00s WALL (     693 calls)
     addusdens    :      0.01s CPU      0.01s WALL (      11 calls)

     Called by *egterg:
     h_psi        :      1.46s CPU      1.49s WALL (    2344 calls)
     s_psi        :      0.13s CPU      0.14s WALL (    2344 calls)
     g_psi        :      0.02s CPU      0.03s WALL (    1588 calls)
     cdiaghg      :      0.35s CPU      0.38s WALL (    2281 calls)

     Called by h_psi:
     h_psi:pot    :      1.45s CPU      1.48s WALL (    2344 calls)
     h_psi:calbec :      0.12s CPU      0.14s WALL (    2344 calls)
     vloc_psi     :      1.16s CPU      1.19s WALL (    2344 calls)
     add_vuspsi   :      0.17s CPU      0.15s WALL (    2344 calls)

     General routines
     calbec       :      0.20s CPU      0.20s WALL (    3352 calls)
     fft          :      0.00s CPU      0.00s WALL (     158 calls)
     ffts         :      0.00s CPU      0.00s WALL (      11 calls)
     fftw         :      1.16s CPU      1.17s WALL (   44888 calls)

     Parallel routines

     PWSCF        :     6.58s CPU         6.83s WALL


   This run was terminated on:   0:44:31  30Oct2019            

=------------------------------------------------------------------------------=
   JOB DONE.
=------------------------------------------------------------------------------=
