
     Program PWSCF v.6.3 starts on 30Oct2019 at  0:44: 8 

     This program is part of the open-source Quantum ESPRESSO suite
     for quantum simulation of materials; please cite
         "P. Giannozzi et al., J. Phys.:Condens. Matter 21 395502 (2009);
         "P. Giannozzi et al., J. Phys.:Condens. Matter 29 465901 (2017);
          URL http://www.quantum-espresso.org", 
     in publications or presentations arising from this work. More details at
     http://www.quantum-espresso.org/quote

     Parallel version (MPI), running on     1 processors

     MPI processes distributed on     1 nodes
     Reading input from /cloud/Code/python/py_pwscf_converge/src/example2/wd/runpwscf/file_10268.in
Warning: card &IONS ignored
Warning: card ION_DYNAMICS = 'BFGS', ignored
Warning: card / ignored
Warning: card &CELL ignored
Warning: card CELL_DYNAMICS = 'BFGS', ignored
Warning: card CELL_FACTOR = 2.0, ignored
Warning: card PRESS = 0.0, ignored
Warning: card / ignored

     Current dimensions of program PWSCF are:
     Max number of different atomic species (ntypx) = 10
     Max number of k-points (npk) =  40000
     Max angular momentum in pseudopotentials (lmaxx) =  3
               file Al.pbe-nl-kjpaw_psl.1.0.0.UPF: wavefunction(s)  3S 3P renormalized

     Subspace diagonalization in iterative solution of the eigenvalue problem:
     a serial algorithm will be used


     G-vector sticks info
     --------------------
     sticks:   dense  smooth     PW     G-vecs:    dense   smooth      PW
     Sum         121     121     81                  949      949     515



     bravais-lattice index     =            0
     lattice parameter (alat)  =       4.0400  a.u.
     unit-cell volume          =      65.9393 (a.u.)^3
     number of atoms/cell      =            4
     number of atomic types    =            1
     number of electrons       =        12.00
     number of Kohn-Sham states=           10
     kinetic-energy cutoff     =      42.0000  Ry
     charge density cutoff     =      90.0000  Ry
     convergence threshold     =      1.0E-06
     mixing beta               =       0.1000
     number of iterations used =           10  TF        mixing
     Exchange-correlation      = SLA PW PBX PBC ( 1  4  3  4 0 0)

     celldm(1)=   4.040000  celldm(2)=   0.000000  celldm(3)=   0.000000
     celldm(4)=   0.000000  celldm(5)=   0.000000  celldm(6)=   0.000000

     crystal axes: (cart. coord. in units of alat)
               a(1) = (   1.000000   0.000000   0.000000 )  
               a(2) = (   0.000000   1.000000   0.000000 )  
               a(3) = (   0.000000   0.000000   1.000000 )  

     reciprocal axes: (cart. coord. in units 2 pi/alat)
               b(1) = (  1.000000  0.000000  0.000000 )  
               b(2) = (  0.000000  1.000000  0.000000 )  
               b(3) = (  0.000000  0.000000  1.000000 )  


     PseudoPot. # 1 for Al read from file:
     /opt/pp/Al.pbe-nl-kjpaw_psl.1.0.0.UPF
     MD5 check sum: 1b67f78b73fe58c7924490f171ce8a1e
     Pseudo is Projector augmented-wave + core cor, Zval =  3.0
     Generated using "atomic" code by A. Dal Corso v.6.3
     Shape of augmentation charge: PSQ
     Using radial grid of 1135 points,  4 beta functions with: 
                l(1) =   0
                l(2) =   0
                l(3) =   1
                l(4) =   1
     Q(r) pseudized with 0 coefficients 


     atomic species   valence    mass     pseudopotential
        Al             3.00    26.98200     Al( 1.00)

     No symmetry found



   Cartesian axes

     site n.     atom                  positions (alat units)
         1           Al  tau(   1) = (  -0.0001235   0.0000359   0.0002572  )
         2           Al  tau(   2) = (   0.5003009   0.4992819   0.0002658  )
         3           Al  tau(   3) = (   0.4996490   0.0001153   0.5011170  )
         4           Al  tau(   4) = (  -0.0000756   0.5008267   0.5006943  )

     number of k points=    63  Marzari-Vanderbilt smearing, width (Ry)=  0.0020
                       cart. coord. in units 2pi/alat
        k(    1) = (   0.1000000   0.1000000   0.1000000), wk =   0.0320000
        k(    2) = (   0.1000000   0.1000000   0.3000000), wk =   0.0320000
        k(    3) = (   0.1000000   0.1000000  -0.5000000), wk =   0.0320000
        k(    4) = (   0.1000000   0.3000000   0.3000000), wk =   0.0320000
        k(    5) = (   0.1000000   0.3000000  -0.5000000), wk =   0.0320000
        k(    6) = (   0.1000000  -0.5000000  -0.5000000), wk =   0.0320000
        k(    7) = (   0.3000000   0.3000000   0.3000000), wk =   0.0320000
        k(    8) = (   0.3000000   0.3000000  -0.5000000), wk =   0.0320000
        k(    9) = (   0.3000000  -0.5000000  -0.5000000), wk =   0.0320000
        k(   10) = (  -0.5000000  -0.5000000  -0.5000000), wk =   0.0160000
        k(   11) = (  -0.1000000  -0.1000000   0.1000000), wk =   0.0320000
        k(   12) = (  -0.1000000   0.1000000  -0.1000000), wk =   0.0320000
        k(   13) = (   0.1000000  -0.1000000  -0.1000000), wk =   0.0320000
        k(   14) = (  -0.1000000  -0.1000000   0.3000000), wk =   0.0320000
        k(   15) = (  -0.1000000   0.1000000  -0.3000000), wk =   0.0320000
        k(   16) = (   0.1000000  -0.1000000  -0.3000000), wk =   0.0320000
        k(   17) = (   0.3000000  -0.1000000   0.1000000), wk =   0.0320000
        k(   18) = (  -0.3000000  -0.1000000  -0.1000000), wk =   0.0320000
        k(   19) = (   0.3000000   0.1000000  -0.1000000), wk =   0.0320000
        k(   20) = (  -0.3000000   0.1000000   0.1000000), wk =   0.0320000
        k(   21) = (  -0.1000000   0.3000000   0.1000000), wk =   0.0320000
        k(   22) = (  -0.1000000  -0.3000000  -0.1000000), wk =   0.0320000
        k(   23) = (   0.1000000   0.3000000  -0.1000000), wk =   0.0320000
        k(   24) = (   0.1000000  -0.3000000   0.1000000), wk =   0.0320000
        k(   25) = (  -0.1000000   0.1000000   0.5000000), wk =   0.0320000
        k(   26) = (  -0.5000000  -0.1000000   0.1000000), wk =   0.0320000
        k(   27) = (   0.5000000  -0.1000000  -0.1000000), wk =   0.0320000
        k(   28) = (  -0.1000000  -0.5000000   0.1000000), wk =   0.0320000
        k(   29) = (  -0.1000000   0.5000000  -0.1000000), wk =   0.0320000
        k(   30) = (  -0.1000000  -0.3000000   0.3000000), wk =   0.0320000
        k(   31) = (  -0.1000000   0.3000000  -0.3000000), wk =   0.0320000
        k(   32) = (   0.1000000  -0.3000000  -0.3000000), wk =   0.0320000
        k(   33) = (   0.3000000   0.1000000  -0.3000000), wk =   0.0320000
        k(   34) = (  -0.3000000  -0.1000000  -0.3000000), wk =   0.0320000
        k(   35) = (   0.3000000  -0.1000000   0.3000000), wk =   0.0320000
        k(   36) = (  -0.3000000   0.1000000   0.3000000), wk =   0.0320000
        k(   37) = (   0.3000000  -0.3000000   0.1000000), wk =   0.0320000
        k(   38) = (  -0.3000000  -0.3000000  -0.1000000), wk =   0.0320000
        k(   39) = (   0.3000000   0.3000000  -0.1000000), wk =   0.0320000
        k(   40) = (  -0.3000000   0.3000000   0.1000000), wk =   0.0320000
        k(   41) = (  -0.1000000   0.3000000   0.5000000), wk =   0.0320000
        k(   42) = (   0.3000000   0.1000000   0.5000000), wk =   0.0320000
        k(   43) = (   0.3000000  -0.1000000  -0.5000000), wk =   0.0320000
        k(   44) = (  -0.5000000  -0.3000000   0.1000000), wk =   0.0320000
        k(   45) = (   0.5000000  -0.3000000  -0.1000000), wk =   0.0320000
        k(   46) = (  -0.1000000  -0.5000000   0.3000000), wk =   0.0320000
        k(   47) = (  -0.1000000   0.5000000  -0.3000000), wk =   0.0320000
        k(   48) = (   0.3000000  -0.5000000   0.1000000), wk =   0.0320000
        k(   49) = (   0.3000000   0.5000000  -0.1000000), wk =   0.0320000
        k(   50) = (  -0.5000000   0.1000000   0.3000000), wk =   0.0320000
        k(   51) = (   0.5000000  -0.1000000   0.3000000), wk =   0.0320000
        k(   52) = (  -0.5000000   0.1000000   0.5000000), wk =   0.0320000
        k(   53) = (  -0.5000000   0.5000000   0.1000000), wk =   0.0320000
        k(   54) = (  -0.3000000  -0.3000000   0.3000000), wk =   0.0320000
        k(   55) = (  -0.3000000   0.3000000  -0.3000000), wk =   0.0320000
        k(   56) = (   0.3000000  -0.3000000  -0.3000000), wk =   0.0320000
        k(   57) = (  -0.3000000   0.3000000   0.5000000), wk =   0.0320000
        k(   58) = (  -0.5000000  -0.3000000   0.3000000), wk =   0.0320000
        k(   59) = (   0.5000000  -0.3000000  -0.3000000), wk =   0.0320000
        k(   60) = (  -0.3000000  -0.5000000   0.3000000), wk =   0.0320000
        k(   61) = (  -0.3000000   0.5000000  -0.3000000), wk =   0.0320000
        k(   62) = (  -0.5000000   0.3000000   0.5000000), wk =   0.0320000
        k(   63) = (  -0.5000000   0.5000000   0.3000000), wk =   0.0320000

     Dense  grid:      949 G-vectors     FFT dimensions: (  15,  15,  15)

     Estimated max dynamical RAM per process >       4.71 MB

     Initial potential from superposition of free atoms

     starting charge   11.99084, renormalised to   12.00000
     Starting wfcs are   16 randomized atomic wfcs
     Checking if some PAW data can be deallocated... 

     total cpu time spent up to now is        1.0 secs

     Self-consistent Calculation

     iteration #  1     ecut=    42.00 Ry     beta= 0.10
     Davidson diagonalization with overlap
     ethr =  1.00E-02,  avg # of iterations =  4.7

     total cpu time spent up to now is        1.7 secs

     total energy              =    -141.66680178 Ry
     Harris-Foulkes estimate   =    -141.82145375 Ry
     estimated scf accuracy    <       0.18355768 Ry

     iteration #  2     ecut=    42.00 Ry     beta= 0.10
     Davidson diagonalization with overlap
     ethr =  1.53E-03,  avg # of iterations =  1.1

     total cpu time spent up to now is        2.1 secs

     total energy              =    -141.17585991 Ry
     Harris-Foulkes estimate   =    -141.67030622 Ry
     estimated scf accuracy    <       0.15334908 Ry

     iteration #  3     ecut=    42.00 Ry     beta= 0.10
     Davidson diagonalization with overlap
     ethr =  1.28E-03,  avg # of iterations =  2.0

     total cpu time spent up to now is        2.6 secs

     total energy              =    -141.24368360 Ry
     Harris-Foulkes estimate   =    -141.24601099 Ry
     estimated scf accuracy    <       0.01453373 Ry

     iteration #  4     ecut=    42.00 Ry     beta= 0.10
     Davidson diagonalization with overlap
     ethr =  1.21E-04,  avg # of iterations =  1.3

     total cpu time spent up to now is        3.1 secs

     total energy              =    -141.24770062 Ry
     Harris-Foulkes estimate   =    -141.24416652 Ry
     estimated scf accuracy    <       0.01170056 Ry

     iteration #  5     ecut=    42.00 Ry     beta= 0.10
     Davidson diagonalization with overlap
     ethr =  9.75E-05,  avg # of iterations =  2.0

     total cpu time spent up to now is        3.6 secs

     total energy              =    -141.25433088 Ry
     Harris-Foulkes estimate   =    -141.24943056 Ry
     estimated scf accuracy    <       0.00109040 Ry

     iteration #  6     ecut=    42.00 Ry     beta= 0.10
     Davidson diagonalization with overlap
     ethr =  9.09E-06,  avg # of iterations =  2.5

     total cpu time spent up to now is        4.1 secs

     total energy              =    -141.25038297 Ry
     Harris-Foulkes estimate   =    -141.25476737 Ry
     estimated scf accuracy    <       0.00015507 Ry

     iteration #  7     ecut=    42.00 Ry     beta= 0.10
     Davidson diagonalization with overlap
     ethr =  1.29E-06,  avg # of iterations =  2.6

     total cpu time spent up to now is        4.6 secs

     total energy              =    -141.25039486 Ry
     Harris-Foulkes estimate   =    -141.25051516 Ry
     estimated scf accuracy    <       0.00010981 Ry

     iteration #  8     ecut=    42.00 Ry     beta= 0.10
     Davidson diagonalization with overlap
     ethr =  9.15E-07,  avg # of iterations =  1.0

     total cpu time spent up to now is        5.0 secs

     total energy              =    -141.24965225 Ry
     Harris-Foulkes estimate   =    -141.25039564 Ry
     estimated scf accuracy    <       0.00006666 Ry

     iteration #  9     ecut=    42.00 Ry     beta= 0.10
     Davidson diagonalization with overlap
     ethr =  5.55E-07,  avg # of iterations =  2.0

     total cpu time spent up to now is        5.5 secs

     total energy              =    -141.24937390 Ry
     Harris-Foulkes estimate   =    -141.24965712 Ry
     estimated scf accuracy    <       0.00005343 Ry

     iteration # 10     ecut=    42.00 Ry     beta= 0.10
     Davidson diagonalization with overlap
     ethr =  4.45E-07,  avg # of iterations =  2.0

     total cpu time spent up to now is        6.0 secs

     total energy              =    -141.24940034 Ry
     Harris-Foulkes estimate   =    -141.24940081 Ry
     estimated scf accuracy    <       0.00000938 Ry

     iteration # 11     ecut=    42.00 Ry     beta= 0.10
     Davidson diagonalization with overlap
     ethr =  7.82E-08,  avg # of iterations =  1.1

     total cpu time spent up to now is        6.4 secs

     total energy              =    -141.24943249 Ry
     Harris-Foulkes estimate   =    -141.24940051 Ry
     estimated scf accuracy    <       0.00000709 Ry

     iteration # 12     ecut=    42.00 Ry     beta= 0.10
     Davidson diagonalization with overlap
     ethr =  5.91E-08,  avg # of iterations =  2.0

     total cpu time spent up to now is        6.9 secs

     total energy              =    -141.24938748 Ry
     Harris-Foulkes estimate   =    -141.24943712 Ry
     estimated scf accuracy    <       0.00001104 Ry

     iteration # 13     ecut=    42.00 Ry     beta= 0.10
     Davidson diagonalization with overlap
     ethr =  5.91E-08,  avg # of iterations =  2.2

     total cpu time spent up to now is        7.4 secs

     total energy              =    -141.24939787 Ry
     Harris-Foulkes estimate   =    -141.24939837 Ry
     estimated scf accuracy    <       0.00000145 Ry

     iteration # 14     ecut=    42.00 Ry     beta= 0.10
     Davidson diagonalization with overlap
     ethr =  1.21E-08,  avg # of iterations =  1.0

     total cpu time spent up to now is        7.9 secs

     total energy              =    -141.24939632 Ry
     Harris-Foulkes estimate   =    -141.24939791 Ry
     estimated scf accuracy    <       0.00000187 Ry

     iteration # 15     ecut=    42.00 Ry     beta= 0.10
     Davidson diagonalization with overlap
     ethr =  1.21E-08,  avg # of iterations =  1.6

     total cpu time spent up to now is        8.3 secs

     End of self-consistent calculation

          k = 0.1000 0.1000 0.1000 (   296 PWs)   bands (ev):

    30.4116  41.2232  41.2374  41.2538  52.3511  52.3668  52.3836  54.7216
    54.7295  54.7388

          k = 0.1000 0.1000 0.3000 (   304 PWs)   bands (ev):

    32.8141  39.8304  43.1444  43.1641  52.2183  52.2358  54.4511  54.4619
    54.6174  58.7268

          k = 0.1000 0.1000-0.5000 (   306 PWs)   bands (ev):

    36.5147  36.5557  44.5191  44.5193  52.1663  52.1670  54.2376  54.2385
    59.1396  59.2036

          k = 0.1000 0.3000 0.3000 (   297 PWs)   bands (ev):

    34.9729  41.6855  41.7220  44.5273  50.9223  53.2474  53.2949  55.4954
    58.4262  58.4275

          k = 0.1000 0.3000-0.5000 (   304 PWs)   bands (ev):

    38.4127  38.4551  44.0444  44.0674  51.6333  51.6392  56.4085  56.4402
    56.9995  57.0023

          k = 0.1000-0.5000-0.5000 (   308 PWs)   bands (ev):

    41.3942  41.4020  41.4417  41.4495  53.6169  53.6284  53.6565  53.6682
    61.3286  61.3354

          k = 0.3000 0.3000 0.3000 (   305 PWs)   bands (ev):

    36.8464  43.3847  43.4176  43.4521  49.7711  49.8079  49.8459  56.2860
    61.5661  61.5694

          k = 0.3000 0.3000-0.5000 (   304 PWs)   bands (ev):

    40.0210  40.0648  45.3010  45.3019  47.4921  47.4935  52.3316  52.3321
    63.0305  63.0311

          k = 0.3000-0.5000-0.5000 (   292 PWs)   bands (ev):

    42.8065  42.8159  42.8581  42.8676  48.8901  48.9011  48.9328  48.9440
    69.0302  69.0496

          k =-0.5000-0.5000-0.5000 (   304 PWs)   bands (ev):

    44.9380  44.9392  44.9408  44.9414  45.7647  45.7651  45.7674  45.7688
    75.1917  75.1932

          k =-0.1000-0.1000 0.1000 (   296 PWs)   bands (ev):

    30.4116  41.2262  41.2377  41.2505  52.3543  52.3672  52.3800  54.7232
    54.7301  54.7367

          k =-0.1000 0.1000-0.1000 (   296 PWs)   bands (ev):

    30.4116  41.2289  41.2385  41.2469  52.3579  52.3667  52.3769  54.7253
    54.7294  54.7353

          k = 0.1000-0.1000-0.1000 (   296 PWs)   bands (ev):

    30.4116  41.2275  41.2380  41.2488  52.3559  52.3672  52.3784  54.7240
    54.7300  54.7360

          k =-0.1000-0.1000 0.3000 (   304 PWs)   bands (ev):

    32.8141  39.8305  43.1444  43.1640  52.2183  52.2358  54.4512  54.4619
    54.6171  58.7268

          k =-0.1000 0.1000-0.3000 (   304 PWs)   bands (ev):

    32.8141  39.8304  43.1497  43.1587  52.2230  52.2311  54.4541  54.4590
    54.6173  58.7267

          k = 0.1000-0.1000-0.3000 (   304 PWs)   bands (ev):

    32.8141  39.8304  43.1498  43.1588  52.2230  52.2310  54.4540  54.4590
    54.6174  58.7268

          k = 0.3000-0.1000 0.1000 (   304 PWs)   bands (ev):

    32.8142  39.8304  43.1497  43.1588  52.2229  52.2310  54.4542  54.4592
    54.6173  58.7268

          k =-0.3000-0.1000-0.1000 (   304 PWs)   bands (ev):

    32.8142  39.8303  43.1459  43.1626  52.2196  52.2345  54.4515  54.4607
    54.6183  58.7268

          k = 0.3000 0.1000-0.1000 (   304 PWs)   bands (ev):

    32.8142  39.8304  43.1497  43.1588  52.2228  52.2310  54.4542  54.4592
    54.6174  58.7268

          k =-0.3000 0.1000 0.1000 (   304 PWs)   bands (ev):

    32.8142  39.8304  43.1459  43.1626  52.2197  52.2346  54.4517  54.4609
    54.6177  58.7268

          k =-0.1000 0.3000 0.1000 (   304 PWs)   bands (ev):

    32.8142  39.8303  43.1531  43.1557  52.2260  52.2282  54.4558  54.4572
    54.6173  58.7267

          k =-0.1000-0.3000-0.1000 (   304 PWs)   bands (ev):

    32.8142  39.8303  43.1495  43.1594  52.2226  52.2314  54.4539  54.4592
    54.6174  58.7267

          k = 0.1000 0.3000-0.1000 (   304 PWs)   bands (ev):

    32.8142  39.8303  43.1531  43.1557  52.2260  52.2282  54.4554  54.4570
    54.6178  58.7266

          k = 0.1000-0.3000 0.1000 (   304 PWs)   bands (ev):

    32.8142  39.8303  43.1495  43.1593  52.2227  52.2315  54.4538  54.4592
    54.6173  58.7267

          k =-0.1000 0.1000 0.5000 (   306 PWs)   bands (ev):

    36.5147  36.5557  44.5192  44.5193  52.1662  52.1670  54.2378  54.2384
    59.1396  59.2036

          k =-0.5000-0.1000 0.1000 (   306 PWs)   bands (ev):

    36.5327  36.5375  44.5192  44.5194  52.1661  52.1667  54.2380  54.2384
    59.1680  59.1753

          k = 0.5000-0.1000-0.1000 (   306 PWs)   bands (ev):

    36.5327  36.5375  44.5191  44.5194  52.1665  52.1670  54.2376  54.2381
    59.1681  59.1754

          k =-0.1000-0.5000 0.1000 (   306 PWs)   bands (ev):

    36.5345  36.5358  44.5194  44.5196  52.1666  52.1667  54.2379  54.2381
    59.1704  59.1727

          k =-0.1000 0.5000-0.1000 (   306 PWs)   bands (ev):

    36.5345  36.5358  44.5193  44.5196  52.1664  52.1667  54.2381  54.2381
    59.1704  59.1727

          k =-0.1000-0.3000 0.3000 (   297 PWs)   bands (ev):

    34.9729  41.6938  41.7137  44.5271  50.9225  53.2582  53.2840  55.4954
    58.4264  58.4270

          k =-0.1000 0.3000-0.3000 (   297 PWs)   bands (ev):

    34.9729  41.6938  41.7138  44.5271  50.9225  53.2581  53.2840  55.4955
    58.4265  58.4270

          k = 0.1000-0.3000-0.3000 (   297 PWs)   bands (ev):

    34.9729  41.6855  41.7220  44.5272  50.9224  53.2474  53.2949  55.4954
    58.4261  58.4272

          k = 0.3000 0.1000-0.3000 (   297 PWs)   bands (ev):

    34.9729  41.7009  41.7065  44.5271  50.9222  53.2677  53.2748  55.4955
    58.4266  58.4270

          k =-0.3000-0.1000-0.3000 (   297 PWs)   bands (ev):

    34.9729  41.6930  41.7144  44.5270  50.9224  53.2574  53.2853  55.4955
    58.4263  58.4269

          k = 0.3000-0.1000 0.3000 (   297 PWs)   bands (ev):

    34.9729  41.6930  41.7145  44.5270  50.9223  53.2572  53.2851  55.4956
    58.4264  58.4271

          k =-0.3000 0.1000 0.3000 (   297 PWs)   bands (ev):

    34.9729  41.7010  41.7065  44.5270  50.9224  53.2678  53.2749  55.4954
    58.4263  58.4268

          k = 0.3000-0.3000 0.1000 (   297 PWs)   bands (ev):

    34.9730  41.6939  41.7136  44.5272  50.9222  53.2584  53.2839  55.4955
    58.4265  58.4272

          k =-0.3000-0.3000-0.1000 (   297 PWs)   bands (ev):

    34.9730  41.6823  41.7252  44.5271  50.9224  53.2433  53.2990  55.4953
    58.4261  58.4275

          k = 0.3000 0.3000-0.1000 (   297 PWs)   bands (ev):

    34.9730  41.6823  41.7253  44.5271  50.9223  53.2432  53.2989  55.4956
    58.4261  58.4275

          k =-0.3000 0.3000 0.1000 (   297 PWs)   bands (ev):

    34.9730  41.6939  41.7136  44.5271  50.9225  53.2585  53.2840  55.4950
    58.4264  58.4271

          k =-0.1000 0.3000 0.5000 (   304 PWs)   bands (ev):

    38.4127  38.4551  44.0445  44.0674  51.6332  51.6391  56.4082  56.4399
    56.9997  57.0027

          k = 0.3000 0.1000 0.5000 (   304 PWs)   bands (ev):

    38.4127  38.4551  44.0443  44.0673  51.6334  51.6393  56.4087  56.4404
    56.9993  57.0021

          k = 0.3000-0.1000-0.5000 (   304 PWs)   bands (ev):

    38.4127  38.4550  44.0444  44.0673  51.6333  51.6392  56.4086  56.4403
    56.9994  57.0023

          k =-0.5000-0.3000 0.1000 (   304 PWs)   bands (ev):

    38.4314  38.4364  44.0546  44.0574  51.6355  51.6364  56.4231  56.4266
    57.0004  57.0008

          k = 0.5000-0.3000-0.1000 (   304 PWs)   bands (ev):

    38.4314  38.4364  44.0546  44.0573  51.6359  51.6368  56.4204  56.4243
    57.0018  57.0040

          k =-0.1000-0.5000 0.3000 (   304 PWs)   bands (ev):

    38.4332  38.4345  44.0557  44.0565  51.6362  51.6363  56.4230  56.4247
    57.0008  57.0021

          k =-0.1000 0.5000-0.3000 (   304 PWs)   bands (ev):

    38.4332  38.4345  44.0557  44.0564  51.6361  51.6363  56.4233  56.4249
    57.0005  57.0019

          k = 0.3000-0.5000 0.1000 (   304 PWs)   bands (ev):

    38.4332  38.4345  44.0557  44.0564  51.6359  51.6363  56.4229  56.4250
    57.0005  57.0023

          k = 0.3000 0.5000-0.1000 (   304 PWs)   bands (ev):

    38.4332  38.4345  44.0557  44.0564  51.6362  51.6363  56.4213  56.4248
    57.0006  57.0039

          k =-0.5000 0.1000 0.3000 (   304 PWs)   bands (ev):

    38.4313  38.4363  44.0545  44.0573  51.6360  51.6369  56.4221  56.4257
    57.0006  57.0021

          k = 0.5000-0.1000 0.3000 (   304 PWs)   bands (ev):

    38.4313  38.4363  44.0545  44.0573  51.6357  51.6366  56.4230  56.4265
    57.0005  57.0009

          k =-0.5000 0.1000 0.5000 (   308 PWs)   bands (ev):

    41.3966  41.4055  41.4381  41.4469  53.6273  53.6385  53.6468  53.6579
    61.3331  61.3390

          k =-0.5000 0.5000 0.1000 (   308 PWs)   bands (ev):

    41.4015  41.4124  41.4312  41.4422  53.6124  53.6288  53.6562  53.6724
    61.3347  61.3511

          k =-0.3000-0.3000 0.3000 (   305 PWs)   bands (ev):

    36.8463  43.3916  43.4180  43.4448  49.7787  49.8083  49.8378  56.2861
    61.5667  61.5697

          k =-0.3000 0.3000-0.3000 (   305 PWs)   bands (ev):

    36.8463  43.3984  43.4182  43.4378  49.7866  49.8077  49.8303  56.2861
    61.5676  61.5704

          k = 0.3000-0.3000-0.3000 (   305 PWs)   bands (ev):

    36.8463  43.3948  43.4180  43.4415  49.7825  49.8083  49.8343  56.2857
    61.5669  61.5696

          k =-0.3000 0.3000 0.5000 (   304 PWs)   bands (ev):

    40.0209  40.0647  45.3016  45.3020  47.4921  47.4929  52.3316  52.3322
    63.0305  63.0311

          k =-0.5000-0.3000 0.3000 (   304 PWs)   bands (ev):

    40.0402  40.0454  45.3019  45.3020  47.4921  47.4925  52.3318  52.3321
    63.0307  63.0309

          k = 0.5000-0.3000-0.3000 (   304 PWs)   bands (ev):

    40.0402  40.0454  45.3015  45.3019  47.4924  47.4930  52.3318  52.3319
    63.0306  63.0311

          k =-0.3000-0.5000 0.3000 (   304 PWs)   bands (ev):

    40.0421  40.0435  45.3019  45.3021  47.4923  47.4924  52.3317  52.3320
    63.0308  63.0311

          k =-0.3000 0.5000-0.3000 (   304 PWs)   bands (ev):

    40.0421  40.0435  45.3018  45.3021  47.4922  47.4926  52.3317  52.3320
    63.0308  63.0310

          k =-0.5000 0.3000 0.5000 (   292 PWs)   bands (ev):

    42.8100  42.8203  42.8536  42.8638  48.8980  48.9090  48.9252  48.9361
    69.0331  69.0431

          k =-0.5000 0.5000 0.3000 (   292 PWs)   bands (ev):

    42.8127  42.8258  42.8482  42.8613  48.8883  48.9039  48.9302  48.9457
    69.0274  69.0352

     the Fermi energy is    52.3575 ev

!    total energy              =    -141.24939638 Ry
     Harris-Foulkes estimate   =    -141.24939657 Ry
     estimated scf accuracy    <       0.00000038 Ry

     total all-electron energy =     -1925.820518 Ry

     The total energy is the sum of the following terms:

     one-electron contribution =      58.71706956 Ry
     hartree contribution      =       0.22091128 Ry
     xc contribution           =     -17.29591219 Ry
     ewald contribution        =     -40.85514773 Ry
     one-center paw contrib.   =    -142.03629234 Ry
     smearing contrib. (-TS)   =      -0.00002496 Ry

     convergence has been achieved in  15 iterations

     Forces acting on atoms (cartesian axes, Ry/au):

     atom    1 type  1   force =     0.00192684   -0.00051388    0.01635334
     atom    2 type  1   force =    -0.00185834    0.00032169    0.01638339
     atom    3 type  1   force =    -0.00196339   -0.00053261   -0.01632982
     atom    4 type  1   force =     0.00189489    0.00072481   -0.01640691

     Total force =     0.032977     Total SCF correction =     0.000015


     Computing stress (Cartesian axis) and pressure

          total   stress  (Ry/bohr**3)                   (kbar)     P=60148.39
   0.40891764   0.00000872   0.00000232      60153.85      1.28      0.34
   0.00000872   0.40877720   0.00000545          1.28  60133.19      0.80
   0.00000232   0.00000545   0.40894668          0.34      0.80  60158.12


     Writing output data file fe_scf_fcc_2.save/

     init_run     :      0.56s CPU      0.57s WALL (       1 calls)
     electrons    :      7.09s CPU      7.34s WALL (       1 calls)
     forces       :      0.04s CPU      0.04s WALL (       1 calls)
     stress       :      0.14s CPU      0.14s WALL (       1 calls)

     Called by init_run:
     wfcinit      :      0.15s CPU      0.14s WALL (       1 calls)
     potinit      :      0.24s CPU      0.25s WALL (       1 calls)
     hinit0       :      0.18s CPU      0.18s WALL (       1 calls)

     Called by electrons:
     c_bands      :      3.07s CPU      3.15s WALL (      15 calls)
     sum_band     :      0.49s CPU      0.50s WALL (      15 calls)
     v_of_rho     :      0.04s CPU      0.03s WALL (      16 calls)
     newd         :      0.03s CPU      0.02s WALL (      16 calls)
     PAW_pot      :      3.70s CPU      3.88s WALL (      16 calls)
     mix_rho      :      0.00s CPU      0.00s WALL (      15 calls)

     Called by c_bands:
     init_us_2    :      0.16s CPU      0.20s WALL (    2079 calls)
     cegterg      :      2.76s CPU      2.83s WALL (     945 calls)

     Called by sum_band:
     sum_band:bec :      0.00s CPU      0.01s WALL (     945 calls)
     addusdens    :      0.01s CPU      0.01s WALL (      15 calls)

     Called by *egterg:
     h_psi        :      1.74s CPU      1.87s WALL (    2838 calls)
     s_psi        :      0.22s CPU      0.17s WALL (    2838 calls)
     g_psi        :      0.04s CPU      0.03s WALL (    1830 calls)
     cdiaghg      :      0.43s CPU      0.42s WALL (    2775 calls)

     Called by h_psi:
     h_psi:pot    :      1.72s CPU      1.86s WALL (    2838 calls)
     h_psi:calbec :      0.12s CPU      0.18s WALL (    2838 calls)
     vloc_psi     :      1.44s CPU      1.49s WALL (    2838 calls)
     add_vuspsi   :      0.16s CPU      0.18s WALL (    2838 calls)

     General routines
     calbec       :      0.22s CPU      0.26s WALL (    4098 calls)
     fft          :      0.00s CPU      0.01s WALL (     202 calls)
     ffts         :      0.00s CPU      0.00s WALL (      15 calls)
     fftw         :      1.43s CPU      1.49s WALL (   57276 calls)

     Parallel routines

     PWSCF        :     8.27s CPU         8.55s WALL


   This run was terminated on:   0:44:16  30Oct2019            

=------------------------------------------------------------------------------=
   JOB DONE.
=------------------------------------------------------------------------------=
