
     Program PWSCF v.6.4.1 starts on 24Feb2020 at 16: 0:55 

     This program is part of the open-source Quantum ESPRESSO suite
     for quantum simulation of materials; please cite
         "P. Giannozzi et al., J. Phys.:Condens. Matter 21 395502 (2009);
         "P. Giannozzi et al., J. Phys.:Condens. Matter 29 465901 (2017);
          URL http://www.quantum-espresso.org", 
     in publications or presentations arising from this work. More details at
     http://www.quantum-espresso.org/quote

     Parallel version (MPI), running on     4 processors

     MPI processes distributed on     1 nodes
     R & G space division:  proc/nbgrp/npool/nimage =       4
     Reading input from /cloud/Code/python/py_pwscf_converge/src/example2/wd/runpwscf/file_10228.in
Warning: card &IONS ignored
Warning: card ION_DYNAMICS = 'BFGS', ignored
Warning: card / ignored
Warning: card &CELL ignored
Warning: card CELL_DYNAMICS = 'BFGS', ignored
Warning: card CELL_FACTOR = 2.0, ignored
Warning: card PRESS = 0.0, ignored
Warning: card / ignored

     Current dimensions of program PWSCF are:
     Max number of different atomic species (ntypx) = 10
     Max number of k-points (npk) =  40000
     Max angular momentum in pseudopotentials (lmaxx) =  3
               file Al.pbe-nl-kjpaw_psl.1.0.0.UPF: wavefunction(s)  3S 3P renormalized

     Subspace diagonalization in iterative solution of the eigenvalue problem:
     a serial algorithm will be used


     Parallelization info
     --------------------
     sticks:   dense  smooth     PW     G-vecs:    dense   smooth      PW
     Min         115     115     70                 1873     1873     893
     Max         117     117     72                 1875     1875     894
     Sum         465     465    285                 7497     7497    3575



     bravais-lattice index     =            0
     lattice parameter (alat)  =       7.6356  a.u.
     unit-cell volume          =     445.1737 (a.u.)^3
     number of atoms/cell      =            4
     number of atomic types    =            1
     number of electrons       =        12.00
     number of Kohn-Sham states=           10
     kinetic-energy cutoff     =      50.0000  Ry
     charge density cutoff     =     100.0000  Ry
     convergence threshold     =      1.0E-06
     mixing beta               =       0.1000
     number of iterations used =           10  TF        mixing
     Exchange-correlation      = SLA PW PBX PBC ( 1  4  3  4 0 0)

     celldm(1)=   7.635600  celldm(2)=   0.000000  celldm(3)=   0.000000
     celldm(4)=   0.000000  celldm(5)=   0.000000  celldm(6)=   0.000000

     crystal axes: (cart. coord. in units of alat)
               a(1) = (   1.000000   0.000000   0.000000 )  
               a(2) = (   0.000000   1.000000   0.000000 )  
               a(3) = (   0.000000   0.000000   1.000000 )  

     reciprocal axes: (cart. coord. in units 2 pi/alat)
               b(1) = (  1.000000  0.000000  0.000000 )  
               b(2) = (  0.000000  1.000000  0.000000 )  
               b(3) = (  0.000000  0.000000  1.000000 )  


     PseudoPot. # 1 for Al read from file:
     /opt/pp/Al.pbe-nl-kjpaw_psl.1.0.0.UPF
     MD5 check sum: 1b67f78b73fe58c7924490f171ce8a1e
     Pseudo is Projector augmented-wave + core cor, Zval =  3.0
     Generated using "atomic" code by A. Dal Corso v.6.3
     Shape of augmentation charge: PSQ
     Using radial grid of 1135 points,  4 beta functions with: 
                l(1) =   0
                l(2) =   0
                l(3) =   1
                l(4) =   1
     Q(r) pseudized with 0 coefficients 


     atomic species   valence    mass     pseudopotential
        Al             3.00    26.98200     Al( 1.00)

     No symmetry found



   Cartesian axes

     site n.     atom                  positions (alat units)
         1           Al  tau(   1) = (  -0.0000654   0.0000190   0.0001361  )
         2           Al  tau(   2) = (   0.5001592   0.4996200   0.0001406  )
         3           Al  tau(   3) = (   0.4998143   0.0000610   0.5005910  )
         4           Al  tau(   4) = (  -0.0000400   0.5004374   0.5003674  )

     number of k points=    63  Marzari-Vanderbilt smearing, width (Ry)=  0.0400
                       cart. coord. in units 2pi/alat
        k(    1) = (   0.1000000   0.1000000   0.1000000), wk =   0.0320000
        k(    2) = (   0.1000000   0.1000000   0.3000000), wk =   0.0320000
        k(    3) = (   0.1000000   0.1000000  -0.5000000), wk =   0.0320000
        k(    4) = (   0.1000000   0.3000000   0.3000000), wk =   0.0320000
        k(    5) = (   0.1000000   0.3000000  -0.5000000), wk =   0.0320000
        k(    6) = (   0.1000000  -0.5000000  -0.5000000), wk =   0.0320000
        k(    7) = (   0.3000000   0.3000000   0.3000000), wk =   0.0320000
        k(    8) = (   0.3000000   0.3000000  -0.5000000), wk =   0.0320000
        k(    9) = (   0.3000000  -0.5000000  -0.5000000), wk =   0.0320000
        k(   10) = (  -0.5000000  -0.5000000  -0.5000000), wk =   0.0160000
        k(   11) = (  -0.1000000  -0.1000000   0.1000000), wk =   0.0320000
        k(   12) = (  -0.1000000   0.1000000  -0.1000000), wk =   0.0320000
        k(   13) = (   0.1000000  -0.1000000  -0.1000000), wk =   0.0320000
        k(   14) = (  -0.1000000  -0.1000000   0.3000000), wk =   0.0320000
        k(   15) = (  -0.1000000   0.1000000  -0.3000000), wk =   0.0320000
        k(   16) = (   0.1000000  -0.1000000  -0.3000000), wk =   0.0320000
        k(   17) = (   0.3000000  -0.1000000   0.1000000), wk =   0.0320000
        k(   18) = (  -0.3000000  -0.1000000  -0.1000000), wk =   0.0320000
        k(   19) = (   0.3000000   0.1000000  -0.1000000), wk =   0.0320000
        k(   20) = (  -0.3000000   0.1000000   0.1000000), wk =   0.0320000
        k(   21) = (  -0.1000000   0.3000000   0.1000000), wk =   0.0320000
        k(   22) = (  -0.1000000  -0.3000000  -0.1000000), wk =   0.0320000
        k(   23) = (   0.1000000   0.3000000  -0.1000000), wk =   0.0320000
        k(   24) = (   0.1000000  -0.3000000   0.1000000), wk =   0.0320000
        k(   25) = (  -0.1000000   0.1000000   0.5000000), wk =   0.0320000
        k(   26) = (  -0.5000000  -0.1000000   0.1000000), wk =   0.0320000
        k(   27) = (   0.5000000  -0.1000000  -0.1000000), wk =   0.0320000
        k(   28) = (  -0.1000000  -0.5000000   0.1000000), wk =   0.0320000
        k(   29) = (  -0.1000000   0.5000000  -0.1000000), wk =   0.0320000
        k(   30) = (  -0.1000000  -0.3000000   0.3000000), wk =   0.0320000
        k(   31) = (  -0.1000000   0.3000000  -0.3000000), wk =   0.0320000
        k(   32) = (   0.1000000  -0.3000000  -0.3000000), wk =   0.0320000
        k(   33) = (   0.3000000   0.1000000  -0.3000000), wk =   0.0320000
        k(   34) = (  -0.3000000  -0.1000000  -0.3000000), wk =   0.0320000
        k(   35) = (   0.3000000  -0.1000000   0.3000000), wk =   0.0320000
        k(   36) = (  -0.3000000   0.1000000   0.3000000), wk =   0.0320000
        k(   37) = (   0.3000000  -0.3000000   0.1000000), wk =   0.0320000
        k(   38) = (  -0.3000000  -0.3000000  -0.1000000), wk =   0.0320000
        k(   39) = (   0.3000000   0.3000000  -0.1000000), wk =   0.0320000
        k(   40) = (  -0.3000000   0.3000000   0.1000000), wk =   0.0320000
        k(   41) = (  -0.1000000   0.3000000   0.5000000), wk =   0.0320000
        k(   42) = (   0.3000000   0.1000000   0.5000000), wk =   0.0320000
        k(   43) = (   0.3000000  -0.1000000  -0.5000000), wk =   0.0320000
        k(   44) = (  -0.5000000  -0.3000000   0.1000000), wk =   0.0320000
        k(   45) = (   0.5000000  -0.3000000  -0.1000000), wk =   0.0320000
        k(   46) = (  -0.1000000  -0.5000000   0.3000000), wk =   0.0320000
        k(   47) = (  -0.1000000   0.5000000  -0.3000000), wk =   0.0320000
        k(   48) = (   0.3000000  -0.5000000   0.1000000), wk =   0.0320000
        k(   49) = (   0.3000000   0.5000000  -0.1000000), wk =   0.0320000
        k(   50) = (  -0.5000000   0.1000000   0.3000000), wk =   0.0320000
        k(   51) = (   0.5000000  -0.1000000   0.3000000), wk =   0.0320000
        k(   52) = (  -0.5000000   0.1000000   0.5000000), wk =   0.0320000
        k(   53) = (  -0.5000000   0.5000000   0.1000000), wk =   0.0320000
        k(   54) = (  -0.3000000  -0.3000000   0.3000000), wk =   0.0320000
        k(   55) = (  -0.3000000   0.3000000  -0.3000000), wk =   0.0320000
        k(   56) = (   0.3000000  -0.3000000  -0.3000000), wk =   0.0320000
        k(   57) = (  -0.3000000   0.3000000   0.5000000), wk =   0.0320000
        k(   58) = (  -0.5000000  -0.3000000   0.3000000), wk =   0.0320000
        k(   59) = (   0.5000000  -0.3000000  -0.3000000), wk =   0.0320000
        k(   60) = (  -0.3000000  -0.5000000   0.3000000), wk =   0.0320000
        k(   61) = (  -0.3000000   0.5000000  -0.3000000), wk =   0.0320000
        k(   62) = (  -0.5000000   0.3000000   0.5000000), wk =   0.0320000
        k(   63) = (  -0.5000000   0.5000000   0.3000000), wk =   0.0320000

     Dense  grid:     7497 G-vectors     FFT dimensions: (  25,  25,  25)

     Estimated max dynamical RAM per process >       9.81 MB

     Estimated total dynamical RAM >      39.25 MB

     Initial potential from superposition of free atoms

     starting charge   11.99084, renormalised to   12.00000
     Starting wfcs are   16 randomized atomic wfcs
     Checking if some PAW data can be deallocated... 

     total cpu time spent up to now is        1.0 secs

     Self-consistent Calculation

     iteration #  1     ecut=    50.00 Ry     beta= 0.10
     Davidson diagonalization with overlap
     ethr =  1.00E-02,  avg # of iterations =  3.1

     Threshold (ethr) on eigenvalues was too large:
     Diagonalizing with lowered threshold

     Davidson diagonalization with overlap
     ethr =  1.95E-04,  avg # of iterations =  3.6

     total cpu time spent up to now is        2.9 secs

     total energy              =    -158.00815083 Ry
     Harris-Foulkes estimate   =    -158.00895135 Ry
     estimated scf accuracy    <       0.02272956 Ry

     iteration #  2     ecut=    50.00 Ry     beta= 0.10
     Davidson diagonalization with overlap
     ethr =  1.89E-04,  avg # of iterations =  1.0

     total cpu time spent up to now is        3.6 secs

     total energy              =    -158.00223714 Ry
     Harris-Foulkes estimate   =    -158.00825724 Ry
     estimated scf accuracy    <       0.01960160 Ry

     iteration #  3     ecut=    50.00 Ry     beta= 0.10
     Davidson diagonalization with overlap
     ethr =  1.63E-04,  avg # of iterations =  1.0

     total cpu time spent up to now is        4.3 secs

     total energy              =    -158.00256895 Ry
     Harris-Foulkes estimate   =    -158.00260825 Ry
     estimated scf accuracy    <       0.00008518 Ry

     iteration #  4     ecut=    50.00 Ry     beta= 0.10
     Davidson diagonalization with overlap
     ethr =  7.10E-07,  avg # of iterations =  4.2

     total cpu time spent up to now is        5.5 secs

     total energy              =    -158.00262970 Ry
     Harris-Foulkes estimate   =    -158.00264307 Ry
     estimated scf accuracy    <       0.00005459 Ry

     iteration #  5     ecut=    50.00 Ry     beta= 0.10
     Davidson diagonalization with overlap
     ethr =  4.55E-07,  avg # of iterations =  1.0

     total cpu time spent up to now is        6.2 secs

     total energy              =    -158.00258721 Ry
     Harris-Foulkes estimate   =    -158.00263095 Ry
     estimated scf accuracy    <       0.00004040 Ry

     iteration #  6     ecut=    50.00 Ry     beta= 0.10
     Davidson diagonalization with overlap
     ethr =  3.37E-07,  avg # of iterations =  2.0

     total cpu time spent up to now is        7.1 secs

     End of self-consistent calculation

          k = 0.1000 0.1000 0.1000 (  2647 PWs)   bands (ev):

    -2.9613   4.0416   4.0440   4.0464   7.7414   7.7441   7.7467  10.7605
    10.7635  10.7665

          k = 0.1000 0.1000 0.3000 (  2672 PWs)   bands (ev):

    -2.2389   1.3159   4.7248   4.7283   8.0298   8.0360   8.5371   8.5378
    11.3564  11.7966

          k = 0.1000 0.1000-0.5000 (  2658 PWs)   bands (ev):

    -0.8086  -0.8015   5.9696   5.9703   6.2112   6.2120   9.5129   9.5133
    10.1747  10.1758

          k = 0.1000 0.3000 0.3000 (  2669 PWs)   bands (ev):

    -1.5201   2.0153   2.0185   5.3104   5.5766   8.7947   8.7991   9.1503
    12.1853  12.1911

          k = 0.1000 0.3000-0.5000 (  2656 PWs)   bands (ev):

    -0.0969  -0.0898   3.4041   3.4113   6.7767   6.7844  10.1399  10.1480
    10.4849  10.4916

          k = 0.1000-0.5000-0.5000 (  2668 PWs)   bands (ev):

     1.3155   1.3160   1.3227   1.3238   8.1281   8.1288   8.1363   8.1376
    11.8268  11.8317

          k = 0.3000 0.3000 0.3000 (  2653 PWs)   bands (ev):

    -0.8048   2.7115   2.7141   2.7166   6.1654   6.1681   6.1708   9.5504
    13.0696  13.0730

          k = 0.3000 0.3000-0.5000 (  2644 PWs)   bands (ev):

     0.6115   0.6186   3.9825   3.9831   4.2319   4.2328   7.5264   7.5339
    14.5694  14.5705

          k = 0.3000-0.5000-0.5000 (  2660 PWs)   bands (ev):

     2.0167   2.0172   2.0240   2.0251   5.4860   5.4865   5.4935   5.4947
    15.6220  15.6271

          k =-0.5000-0.5000-0.5000 (  2608 PWs)   bands (ev):

     3.3110   3.3112   3.3114   3.3119   3.5281   3.5292   3.5294   3.5298
    19.3118  19.3125

          k =-0.1000-0.1000 0.1000 (  2647 PWs)   bands (ev):

    -2.9613   4.0421   4.0441   4.0459   7.7419   7.7441   7.7462  10.7610
    10.7635  10.7659

          k =-0.1000 0.1000-0.1000 (  2647 PWs)   bands (ev):

    -2.9613   4.0427   4.0440   4.0454   7.7425   7.7440   7.7456  10.7617
    10.7635  10.7652

          k = 0.1000-0.1000-0.1000 (  2647 PWs)   bands (ev):

    -2.9613   4.0423   4.0441   4.0457   7.7421   7.7441   7.7459  10.7613
    10.7635  10.7656

          k =-0.1000-0.1000 0.3000 (  2672 PWs)   bands (ev):

    -2.2389   1.3159   4.7248   4.7283   8.0298   8.0360   8.5371   8.5378
    11.3564  11.7970

          k =-0.1000 0.1000-0.3000 (  2672 PWs)   bands (ev):

    -2.2389   1.3159   4.7258   4.7273   8.0315   8.0343   8.5373   8.5376
    11.3564  11.7967

          k = 0.1000-0.1000-0.3000 (  2672 PWs)   bands (ev):

    -2.2389   1.3159   4.7258   4.7273   8.0315   8.0343   8.5373   8.5376
    11.3564  11.7970

          k = 0.3000-0.1000 0.1000 (  2672 PWs)   bands (ev):

    -2.2389   1.3159   4.7257   4.7274   8.0315   8.0344   8.5372   8.5377
    11.3564  11.7966

          k =-0.3000-0.1000-0.1000 (  2672 PWs)   bands (ev):

    -2.2389   1.3159   4.7251   4.7281   8.0303   8.0355   8.5371   8.5378
    11.3564  11.7963

          k = 0.3000 0.1000-0.1000 (  2672 PWs)   bands (ev):

    -2.2389   1.3159   4.7257   4.7274   8.0315   8.0344   8.5372   8.5377
    11.3564  11.7965

          k =-0.3000 0.1000 0.1000 (  2672 PWs)   bands (ev):

    -2.2389   1.3159   4.7251   4.7281   8.0303   8.0355   8.5371   8.5378
    11.3564  11.7965

          k =-0.1000 0.3000 0.1000 (  2672 PWs)   bands (ev):

    -2.2389   1.3159   4.7263   4.7268   8.0325   8.0333   8.5373   8.5376
    11.3564  11.7964

          k =-0.1000-0.3000-0.1000 (  2672 PWs)   bands (ev):

    -2.2389   1.3159   4.7258   4.7273   8.0315   8.0344   8.5374   8.5375
    11.3564  11.7965

          k = 0.1000 0.3000-0.1000 (  2672 PWs)   bands (ev):

    -2.2389   1.3159   4.7263   4.7268   8.0325   8.0333   8.5373   8.5376
    11.3564  11.7959

          k = 0.1000-0.3000 0.1000 (  2672 PWs)   bands (ev):

    -2.2389   1.3159   4.7258   4.7273   8.0315   8.0344   8.5374   8.5375
    11.3564  11.7965

          k =-0.1000 0.1000 0.5000 (  2658 PWs)   bands (ev):

    -0.8086  -0.8015   5.9697   5.9702   6.2111   6.2120   9.5129   9.5133
    10.1747  10.1758

          k =-0.5000-0.1000 0.1000 (  2658 PWs)   bands (ev):

    -0.8055  -0.8046   5.9698   5.9702   6.2112   6.2119   9.5130   9.5132
    10.1748  10.1756

          k = 0.5000-0.1000-0.1000 (  2658 PWs)   bands (ev):

    -0.8055  -0.8046   5.9698   5.9702   6.2112   6.2119   9.5130   9.5132
    10.1748  10.1756

          k =-0.1000-0.5000 0.1000 (  2658 PWs)   bands (ev):

    -0.8052  -0.8048   5.9699   5.9701   6.2113   6.2117   9.5131   9.5132
    10.1750  10.1754

          k =-0.1000 0.5000-0.1000 (  2658 PWs)   bands (ev):

    -0.8052  -0.8048   5.9699   5.9701   6.2114   6.2116   9.5130   9.5132
    10.1751  10.1754

          k =-0.1000-0.3000 0.3000 (  2669 PWs)   bands (ev):

    -1.5201   2.0160   2.0178   5.3104   5.5766   8.7957   8.7981   9.1503
    12.1866  12.1905

          k =-0.1000 0.3000-0.3000 (  2669 PWs)   bands (ev):

    -1.5201   2.0160   2.0178   5.3104   5.5766   8.7957   8.7981   9.1503
    12.1870  12.1904

          k = 0.1000-0.3000-0.3000 (  2669 PWs)   bands (ev):

    -1.5201   2.0153   2.0185   5.3104   5.5766   8.7947   8.7991   9.1503
    12.1854  12.1920

          k = 0.3000 0.1000-0.3000 (  2669 PWs)   bands (ev):

    -1.5201   2.0166   2.0172   5.3104   5.5766   8.7965   8.7973   9.1503
    12.1879  12.1893

          k =-0.3000-0.1000-0.3000 (  2669 PWs)   bands (ev):

    -1.5201   2.0161   2.0177   5.3104   5.5766   8.7957   8.7981   9.1504
    12.1861  12.1903

          k = 0.3000-0.1000 0.3000 (  2669 PWs)   bands (ev):

    -1.5201   2.0161   2.0177   5.3104   5.5766   8.7957   8.7981   9.1503
    12.1869  12.1903

          k =-0.3000 0.1000 0.3000 (  2669 PWs)   bands (ev):

    -1.5201   2.0166   2.0172   5.3104   5.5766   8.7965   8.7973   9.1504
    12.1882  12.1893

          k = 0.3000-0.3000 0.1000 (  2669 PWs)   bands (ev):

    -1.5201   2.0161   2.0177   5.3104   5.5766   8.7957   8.7981   9.1503
    12.1869  12.1892

          k =-0.3000-0.3000-0.1000 (  2669 PWs)   bands (ev):

    -1.5201   2.0151   2.0187   5.3104   5.5766   8.7944   8.7994   9.1503
    12.1850  12.1918

          k = 0.3000 0.3000-0.1000 (  2669 PWs)   bands (ev):

    -1.5201   2.0151   2.0187   5.3104   5.5766   8.7944   8.7994   9.1503
    12.1850  12.1923

          k =-0.3000 0.3000 0.1000 (  2669 PWs)   bands (ev):

    -1.5201   2.0161   2.0177   5.3104   5.5766   8.7957   8.7981   9.1503
    12.1862  12.1905

          k =-0.1000 0.3000 0.5000 (  2656 PWs)   bands (ev):

    -0.0969  -0.0898   3.4041   3.4113   6.7767   6.7844  10.1399  10.1480
    10.4849  10.4916

          k = 0.3000 0.1000 0.5000 (  2656 PWs)   bands (ev):

    -0.0969  -0.0898   3.4041   3.4113   6.7767   6.7844  10.1399  10.1480
    10.4849  10.4916

          k = 0.3000-0.1000-0.5000 (  2656 PWs)   bands (ev):

    -0.0969  -0.0898   3.4041   3.4113   6.7767   6.7844  10.1399  10.1480
    10.4849  10.4916

          k =-0.5000-0.3000 0.1000 (  2656 PWs)   bands (ev):

    -0.0938  -0.0928   3.4072   3.4081   6.7800   6.7811  10.1435  10.1445
    10.4879  10.4887

          k = 0.5000-0.3000-0.1000 (  2656 PWs)   bands (ev):

    -0.0938  -0.0928   3.4072   3.4081   6.7800   6.7811  10.1435  10.1445
    10.4879  10.4887

          k =-0.1000-0.5000 0.3000 (  2656 PWs)   bands (ev):

    -0.0935  -0.0931   3.4074   3.4079   6.7803   6.7808  10.1437  10.1442
    10.4881  10.4885

          k =-0.1000 0.5000-0.3000 (  2656 PWs)   bands (ev):

    -0.0935  -0.0931   3.4074   3.4079   6.7803   6.7808  10.1438  10.1442
    10.4881  10.4885

          k = 0.3000-0.5000 0.1000 (  2656 PWs)   bands (ev):

    -0.0935  -0.0931   3.4074   3.4079   6.7803   6.7808  10.1438  10.1442
    10.4881  10.4885

          k = 0.3000 0.5000-0.1000 (  2656 PWs)   bands (ev):

    -0.0935  -0.0931   3.4074   3.4079   6.7803   6.7808  10.1437  10.1442
    10.4881  10.4885

          k =-0.5000 0.1000 0.3000 (  2656 PWs)   bands (ev):

    -0.0938  -0.0928   3.4072   3.4081   6.7800   6.7811  10.1434  10.1445
    10.4879  10.4887

          k = 0.5000-0.1000 0.3000 (  2656 PWs)   bands (ev):

    -0.0938  -0.0928   3.4072   3.4081   6.7800   6.7811  10.1435  10.1445
    10.4879  10.4887

          k =-0.5000 0.1000 0.5000 (  2668 PWs)   bands (ev):

     1.3155   1.3162   1.3224   1.3237   8.1283   8.1291   8.1359   8.1375
    11.8303  11.8332

          k =-0.5000 0.5000 0.1000 (  2668 PWs)   bands (ev):

     1.3175   1.3186   1.3202   1.3215   8.1301   8.1315   8.1337   8.1353
    11.8294  11.8303

          k =-0.3000-0.3000 0.3000 (  2653 PWs)   bands (ev):

    -0.8048   2.7120   2.7141   2.7161   6.1659   6.1681   6.1703   9.5504
    13.0704  13.0725

          k =-0.3000 0.3000-0.3000 (  2653 PWs)   bands (ev):

    -0.8048   2.7126   2.7141   2.7155   6.1665   6.1681   6.1697   9.5504
    13.0713  13.0732

          k = 0.3000-0.3000-0.3000 (  2653 PWs)   bands (ev):

    -0.8048   2.7122   2.7141   2.7159   6.1661   6.1681   6.1700   9.5504
    13.0700  13.0731

          k =-0.3000 0.3000 0.5000 (  2644 PWs)   bands (ev):

     0.6115   0.6186   3.9826   3.9831   4.2319   4.2328   7.5264   7.5339
    14.5693  14.5701

          k =-0.5000-0.3000 0.3000 (  2644 PWs)   bands (ev):

     0.6146   0.6155   3.9827   3.9831   4.2319   4.2326   7.5297   7.5307
    14.5689  14.5702

          k = 0.5000-0.3000-0.3000 (  2644 PWs)   bands (ev):

     0.6146   0.6155   3.9827   3.9831   4.2319   4.2326   7.5297   7.5307
    14.5690  14.5702

          k =-0.3000-0.5000 0.3000 (  2644 PWs)   bands (ev):

     0.6148   0.6153   3.9828   3.9830   4.2321   4.2325   7.5299   7.5304
    14.5695  14.5700

          k =-0.3000 0.5000-0.3000 (  2644 PWs)   bands (ev):

     0.6148   0.6153   3.9828   3.9830   4.2321   4.2324   7.5299   7.5304
    14.1697  14.5700

          k =-0.5000 0.3000 0.5000 (  2660 PWs)   bands (ev):

     2.0168   2.0175   2.0237   2.0250   5.4861   5.4868   5.4932   5.4946
    15.6203  15.6251

          k =-0.5000 0.5000 0.3000 (  2660 PWs)   bands (ev):

     2.0188   2.0199   2.0215   2.0228   5.4881   5.4893   5.4910   5.4923
    15.6239  15.6251

     the Fermi energy is     8.0743 ev

!    total energy              =    -158.00259713 Ry
     Harris-Foulkes estimate   =    -158.00259731 Ry
     estimated scf accuracy    <       0.00000094 Ry

     total all-electron energy =     -1942.573719 Ry

     The total energy is the sum of the following terms:

     one-electron contribution =      12.66908650 Ry
     hartree contribution      =       0.02425269 Ry
     xc contribution           =     -10.36338022 Ry
     ewald contribution        =     -21.61650270 Ry
     one-center paw contrib.   =    -138.70850981 Ry
     smearing contrib. (-TS)   =      -0.00754359 Ry

     convergence has been achieved in   6 iterations

     Forces acting on atoms (cartesian axes, Ry/au):

     atom    1 type  1   force =     0.00006031   -0.00004689    0.00022749
     atom    2 type  1   force =    -0.00017057    0.00020243    0.00022857
     atom    3 type  1   force =     0.00004943    0.00004999   -0.00033266
     atom    4 type  1   force =     0.00006083   -0.00020553   -0.00012341

     Total force =     0.000597     Total SCF correction =     0.000227
     SCF correction compared to forces is large: reduce conv_thr to get better values


     Computing stress (Cartesian axis) and pressure

          total   stress  (Ry/bohr**3)                   (kbar)     P=    0.23
   0.00000154   0.00000001   0.00000001          0.23      0.00      0.00
   0.00000001   0.00000156   0.00000001          0.00      0.23      0.00
   0.00000001   0.00000001   0.00000156          0.00      0.00      0.23


     Writing output data file fe_scf_fcc_2.save/

     init_run     :      0.51s CPU      0.54s WALL (       1 calls)
     electrons    :      5.70s CPU      6.10s WALL (       1 calls)
     forces       :      0.16s CPU      0.16s WALL (       1 calls)
     stress       :      0.29s CPU      0.29s WALL (       1 calls)

     Called by init_run:
     wfcinit      :      0.40s CPU      0.43s WALL (       1 calls)
     potinit      :      0.05s CPU      0.05s WALL (       1 calls)
     hinit0       :      0.05s CPU      0.05s WALL (       1 calls)

     Called by electrons:
     c_bands      :      4.80s CPU      5.14s WALL (       7 calls)
     sum_band     :      0.62s CPU      0.65s WALL (       7 calls)
     v_of_rho     :      0.02s CPU      0.02s WALL (       7 calls)
     newd         :      0.01s CPU      0.01s WALL (       7 calls)
     PAW_pot      :      0.29s CPU      0.32s WALL (       7 calls)
     mix_rho      :      0.00s CPU      0.00s WALL (       7 calls)

     Called by c_bands:
     init_us_2    :      0.16s CPU      0.17s WALL (    1071 calls)
     cegterg      :      4.53s CPU      4.84s WALL (     441 calls)

     Called by sum_band:
     sum_band:bec :      0.00s CPU      0.00s WALL (     441 calls)
     addusdens    :      0.01s CPU      0.01s WALL (       7 calls)

     Called by *egterg:
     h_psi        :      3.01s CPU      3.23s WALL (    1508 calls)
     s_psi        :      0.41s CPU      0.44s WALL (    1508 calls)
     g_psi        :      0.03s CPU      0.03s WALL (    1004 calls)
     cdiaghg      :      0.25s CPU      0.27s WALL (    1382 calls)

     Called by h_psi:
     h_psi:pot    :      2.99s CPU      3.21s WALL (    1508 calls)
     h_psi:calbec :      0.58s CPU      0.62s WALL (    1508 calls)
     vloc_psi     :      1.99s CPU      2.14s WALL (    1508 calls)
     add_vuspsi   :      0.41s CPU      0.44s WALL (    1508 calls)

     General routines
     calbec       :      0.93s CPU      0.98s WALL (    2264 calls)
     fft          :      0.01s CPU      0.01s WALL (     103 calls)
     ffts         :      0.00s CPU      0.00s WALL (       7 calls)
     fftw         :      2.14s CPU      2.29s WALL (   29436 calls)

     Parallel routines
     fft_scatt_xy :      0.25s CPU      0.26s WALL (   29546 calls)
     fft_scatt_yz :      1.04s CPU      1.12s WALL (   29546 calls)

     PWSCF        :      7.14s CPU      7.61s WALL


   This run was terminated on:  16: 1: 3  24Feb2020            

=------------------------------------------------------------------------------=
   JOB DONE.
=------------------------------------------------------------------------------=
