
     Program PWSCF v.6.3 starts on 30Oct2019 at  0:43:30 

     This program is part of the open-source Quantum ESPRESSO suite
     for quantum simulation of materials; please cite
         "P. Giannozzi et al., J. Phys.:Condens. Matter 21 395502 (2009);
         "P. Giannozzi et al., J. Phys.:Condens. Matter 29 465901 (2017);
          URL http://www.quantum-espresso.org", 
     in publications or presentations arising from this work. More details at
     http://www.quantum-espresso.org/quote

     Parallel version (MPI), running on     1 processors

     MPI processes distributed on     1 nodes
     Reading input from /cloud/Code/python/py_pwscf_converge/src/example2/wd/runpwscf/file_10260.in
Warning: card &IONS ignored
Warning: card ION_DYNAMICS = 'BFGS', ignored
Warning: card / ignored
Warning: card &CELL ignored
Warning: card CELL_DYNAMICS = 'BFGS', ignored
Warning: card CELL_FACTOR = 2.0, ignored
Warning: card PRESS = 0.0, ignored
Warning: card / ignored

     Current dimensions of program PWSCF are:
     Max number of different atomic species (ntypx) = 10
     Max number of k-points (npk) =  40000
     Max angular momentum in pseudopotentials (lmaxx) =  3
               file Al.pbe-nl-kjpaw_psl.1.0.0.UPF: wavefunction(s)  3S 3P renormalized

     Subspace diagonalization in iterative solution of the eigenvalue problem:
     a serial algorithm will be used


     G-vector sticks info
     --------------------
     sticks:   dense  smooth     PW     G-vecs:    dense   smooth      PW
     Sum         121     121     81                  949      949     515



     bravais-lattice index     =            0
     lattice parameter (alat)  =       4.0400  a.u.
     unit-cell volume          =      65.9393 (a.u.)^3
     number of atoms/cell      =            4
     number of atomic types    =            1
     number of electrons       =        12.00
     number of Kohn-Sham states=           10
     kinetic-energy cutoff     =      42.0000  Ry
     charge density cutoff     =      90.0000  Ry
     convergence threshold     =      1.0E-06
     mixing beta               =       0.1000
     number of iterations used =           10  TF        mixing
     Exchange-correlation      = SLA PW PBX PBC ( 1  4  3  4 0 0)

     celldm(1)=   4.040000  celldm(2)=   0.000000  celldm(3)=   0.000000
     celldm(4)=   0.000000  celldm(5)=   0.000000  celldm(6)=   0.000000

     crystal axes: (cart. coord. in units of alat)
               a(1) = (   1.000000   0.000000   0.000000 )  
               a(2) = (   0.000000   1.000000   0.000000 )  
               a(3) = (   0.000000   0.000000   1.000000 )  

     reciprocal axes: (cart. coord. in units 2 pi/alat)
               b(1) = (  1.000000  0.000000  0.000000 )  
               b(2) = (  0.000000  1.000000  0.000000 )  
               b(3) = (  0.000000  0.000000  1.000000 )  


     PseudoPot. # 1 for Al read from file:
     /opt/pp/Al.pbe-nl-kjpaw_psl.1.0.0.UPF
     MD5 check sum: 1b67f78b73fe58c7924490f171ce8a1e
     Pseudo is Projector augmented-wave + core cor, Zval =  3.0
     Generated using "atomic" code by A. Dal Corso v.6.3
     Shape of augmentation charge: PSQ
     Using radial grid of 1135 points,  4 beta functions with: 
                l(1) =   0
                l(2) =   0
                l(3) =   1
                l(4) =   1
     Q(r) pseudized with 0 coefficients 


     atomic species   valence    mass     pseudopotential
        Al             3.00    26.98200     Al( 1.00)

     No symmetry found



   Cartesian axes

     site n.     atom                  positions (alat units)
         1           Al  tau(   1) = (  -0.0001235   0.0000359   0.0002572  )
         2           Al  tau(   2) = (   0.5003009   0.4992819   0.0002658  )
         3           Al  tau(   3) = (   0.4996490   0.0001153   0.5011170  )
         4           Al  tau(   4) = (  -0.0000756   0.5008267   0.5006943  )

     number of k points=    14  Marzari-Vanderbilt smearing, width (Ry)=  0.0070
                       cart. coord. in units 2pi/alat
        k(    1) = (   0.1666667   0.1666667   0.1666667), wk =   0.1481481
        k(    2) = (   0.1666667   0.1666667  -0.5000000), wk =   0.1481481
        k(    3) = (   0.1666667  -0.5000000  -0.5000000), wk =   0.1481481
        k(    4) = (  -0.5000000  -0.5000000  -0.5000000), wk =   0.0740741
        k(    5) = (  -0.1666667  -0.1666667   0.1666667), wk =   0.1481481
        k(    6) = (  -0.1666667   0.1666667  -0.1666667), wk =   0.1481481
        k(    7) = (   0.1666667  -0.1666667  -0.1666667), wk =   0.1481481
        k(    8) = (  -0.1666667   0.1666667   0.5000000), wk =   0.1481481
        k(    9) = (  -0.5000000  -0.1666667   0.1666667), wk =   0.1481481
        k(   10) = (   0.5000000  -0.1666667  -0.1666667), wk =   0.1481481
        k(   11) = (  -0.1666667  -0.5000000   0.1666667), wk =   0.1481481
        k(   12) = (  -0.1666667   0.5000000  -0.1666667), wk =   0.1481481
        k(   13) = (  -0.5000000   0.1666667   0.5000000), wk =   0.1481481
        k(   14) = (  -0.5000000   0.5000000   0.1666667), wk =   0.1481481

     Dense  grid:      949 G-vectors     FFT dimensions: (  15,  15,  15)

     Estimated max dynamical RAM per process >       2.44 MB

     Initial potential from superposition of free atoms

     starting charge   11.99084, renormalised to   12.00000
     Starting wfcs are   16 randomized atomic wfcs
     Checking if some PAW data can be deallocated... 

     total cpu time spent up to now is        0.9 secs

     Self-consistent Calculation

     iteration #  1     ecut=    42.00 Ry     beta= 0.10
     Davidson diagonalization with overlap
     ethr =  1.00E-02,  avg # of iterations =  3.6

     total cpu time spent up to now is        1.2 secs

     total energy              =    -141.65097945 Ry
     Harris-Foulkes estimate   =    -141.80742997 Ry
     estimated scf accuracy    <       0.18670195 Ry

     iteration #  2     ecut=    42.00 Ry     beta= 0.10
     Davidson diagonalization with overlap
     ethr =  1.56E-03,  avg # of iterations =  1.2

     total cpu time spent up to now is        1.5 secs

     total energy              =    -141.15567464 Ry
     Harris-Foulkes estimate   =    -141.65467751 Ry
     estimated scf accuracy    <       0.16042467 Ry

     iteration #  3     ecut=    42.00 Ry     beta= 0.10
     Davidson diagonalization with overlap
     ethr =  1.34E-03,  avg # of iterations =  2.4

     total cpu time spent up to now is        1.9 secs

     total energy              =    -141.21801992 Ry
     Harris-Foulkes estimate   =    -141.24872967 Ry
     estimated scf accuracy    <       0.02563836 Ry

     iteration #  4     ecut=    42.00 Ry     beta= 0.10
     Davidson diagonalization with overlap
     ethr =  2.14E-04,  avg # of iterations =  1.7

     total cpu time spent up to now is        2.1 secs

     total energy              =    -141.22013674 Ry
     Harris-Foulkes estimate   =    -141.21904514 Ry
     estimated scf accuracy    <       0.01776572 Ry

     iteration #  5     ecut=    42.00 Ry     beta= 0.10
     Davidson diagonalization with overlap
     ethr =  1.48E-04,  avg # of iterations =  1.0

     total cpu time spent up to now is        2.4 secs

     total energy              =    -141.22085289 Ry
     Harris-Foulkes estimate   =    -141.22120790 Ry
     estimated scf accuracy    <       0.00139547 Ry

     iteration #  6     ecut=    42.00 Ry     beta= 0.10
     Davidson diagonalization with overlap
     ethr =  1.16E-05,  avg # of iterations =  2.0

     total cpu time spent up to now is        2.7 secs

     total energy              =    -141.22186179 Ry
     Harris-Foulkes estimate   =    -141.22134917 Ry
     estimated scf accuracy    <       0.00012032 Ry

     iteration #  7     ecut=    42.00 Ry     beta= 0.10
     Davidson diagonalization with overlap
     ethr =  1.00E-06,  avg # of iterations =  2.2

     total cpu time spent up to now is        3.0 secs

     total energy              =    -141.22062940 Ry
     Harris-Foulkes estimate   =    -141.22187546 Ry
     estimated scf accuracy    <       0.00002874 Ry

     iteration #  8     ecut=    42.00 Ry     beta= 0.10
     Davidson diagonalization with overlap
     ethr =  2.39E-07,  avg # of iterations =  3.0

     total cpu time spent up to now is        3.4 secs

     total energy              =    -141.22063474 Ry
     Harris-Foulkes estimate   =    -141.22068518 Ry
     estimated scf accuracy    <       0.00000250 Ry

     iteration #  9     ecut=    42.00 Ry     beta= 0.10
     Davidson diagonalization with overlap
     ethr =  2.08E-08,  avg # of iterations =  2.7

     total cpu time spent up to now is        3.7 secs

     total energy              =    -141.22057419 Ry
     Harris-Foulkes estimate   =    -141.22063552 Ry
     estimated scf accuracy    <       0.00000410 Ry

     iteration # 10     ecut=    42.00 Ry     beta= 0.10
     Davidson diagonalization with overlap
     ethr =  2.08E-08,  avg # of iterations =  3.0

     total cpu time spent up to now is        4.0 secs

     End of self-consistent calculation

          k = 0.1667 0.1667 0.1667 (   293 PWs)   bands (ev):

    32.1085  41.9735  41.9962  42.0203  52.3313  52.3556  52.3819  55.7019
    55.7111  55.7221

          k = 0.1667 0.1667-0.5000 (   302 PWs)   bands (ev):

    37.4302  37.4730  44.7801  44.7805  50.7758  50.7769  56.2519  56.2524
    57.3463  57.3877

          k = 0.1667-0.5000-0.5000 (   312 PWs)   bands (ev):

    41.7629  41.7716  41.8127  41.8204  51.9581  51.9687  51.9947  52.0053
    63.6915  63.6981

          k =-0.5000-0.5000-0.5000 (   304 PWs)   bands (ev):

    44.9424  44.9434  44.9447  44.9453  45.8148  45.8153  45.8166  45.8183
    75.1979  75.2004

          k =-0.1667-0.1667 0.1667 (   293 PWs)   bands (ev):

    32.1085  41.9783  41.9966  42.0152  52.3362  52.3563  52.3762  55.7036
    55.7119  55.7196

          k =-0.1667 0.1667-0.1667 (   293 PWs)   bands (ev):

    32.1085  41.9828  41.9971  42.0101  52.3418  52.3555  52.3714  55.7061
    55.7111  55.7180

          k = 0.1667-0.1667-0.1667 (   293 PWs)   bands (ev):

    32.1085  41.9804  41.9968  42.0128  52.3387  52.3563  52.3739  55.7045
    55.7118  55.7186

          k =-0.1667 0.1667 0.5000 (   302 PWs)   bands (ev):

    37.4302  37.4730  44.7804  44.7805  50.7758  50.7766  56.2519  56.2524
    57.3464  57.3878

          k =-0.5000-0.1667 0.1667 (   302 PWs)   bands (ev):

    37.4490  37.4540  44.7804  44.7805  50.7758  50.7763  56.2522  56.2528
    57.3645  57.3694

          k = 0.5000-0.1667-0.1667 (   302 PWs)   bands (ev):

    37.4490  37.4540  44.7803  44.7805  50.7760  50.7768  56.2512  56.2516
    57.3652  57.3702

          k =-0.1667-0.5000 0.1667 (   302 PWs)   bands (ev):

    37.4507  37.4523  44.7804  44.7808  50.7760  50.7764  56.2509  56.2526
    57.3662  57.3685

          k =-0.1667 0.5000-0.1667 (   302 PWs)   bands (ev):

    37.4507  37.4523  44.7805  44.7807  50.7756  50.7768  56.2517  56.2525
    57.3661  57.3681

          k =-0.5000 0.1667 0.5000 (   312 PWs)   bands (ev):

    41.7657  41.7748  41.8089  41.8179  51.9675  51.9778  51.9858  51.9961
    63.7057  63.7111

          k =-0.5000 0.5000 0.1667 (   312 PWs)   bands (ev):

    41.7710  41.7822  41.8014  41.8129  51.9542  51.9691  51.9943  52.0091
    63.6971  63.7137

     the Fermi energy is    52.2882 ev

!    total energy              =    -141.22057817 Ry
     Harris-Foulkes estimate   =    -141.22057833 Ry
     estimated scf accuracy    <       0.00000090 Ry

     total all-electron energy =     -1925.791700 Ry

     The total energy is the sum of the following terms:

     one-electron contribution =      58.80594969 Ry
     hartree contribution      =       0.23183366 Ry
     xc contribution           =     -17.30908527 Ry
     ewald contribution        =     -40.85514773 Ry
     one-center paw contrib.   =    -142.09319852 Ry
     smearing contrib. (-TS)   =      -0.00092999 Ry

     convergence has been achieved in  10 iterations

     Forces acting on atoms (cartesian axes, Ry/au):

     atom    1 type  1   force =     0.00182333   -0.00074254    0.01614477
     atom    2 type  1   force =    -0.00046832   -0.00282885    0.01622304
     atom    3 type  1   force =    -0.00330070   -0.00031822   -0.01530091
     atom    4 type  1   force =     0.00194570    0.00388961   -0.01706690

     Total force =     0.033034     Total SCF correction =     0.000009


     Computing stress (Cartesian axis) and pressure

          total   stress  (Ry/bohr**3)                   (kbar)     P=60747.71
   0.41297181   0.00002506   0.00000814      60750.24      3.69      1.20
   0.00002506   0.41290237   0.00001253          3.69  60740.03      1.84
   0.00000814   0.00001253   0.41298969          1.20      1.84  60752.87


     Writing output data file fe_scf_fcc_2.save/

     init_run     :      0.44s CPU      0.45s WALL (       1 calls)
     electrons    :      2.98s CPU      3.10s WALL (       1 calls)
     forces       :      0.02s CPU      0.01s WALL (       1 calls)
     stress       :      0.04s CPU      0.04s WALL (       1 calls)

     Called by init_run:
     wfcinit      :      0.03s CPU      0.03s WALL (       1 calls)
     potinit      :      0.23s CPU      0.25s WALL (       1 calls)
     hinit0       :      0.17s CPU      0.17s WALL (       1 calls)

     Called by electrons:
     c_bands      :      0.53s CPU      0.54s WALL (      10 calls)
     sum_band     :      0.08s CPU      0.09s WALL (      10 calls)
     v_of_rho     :      0.01s CPU      0.02s WALL (      11 calls)
     newd         :      0.02s CPU      0.02s WALL (      11 calls)
     PAW_pot      :      2.56s CPU      2.68s WALL (      11 calls)
     mix_rho      :      0.00s CPU      0.00s WALL (      10 calls)

     Called by c_bands:
     init_us_2    :      0.02s CPU      0.03s WALL (     322 calls)
     cegterg      :      0.49s CPU      0.49s WALL (     140 calls)

     Called by sum_band:
     sum_band:bec :      0.00s CPU      0.00s WALL (     140 calls)
     addusdens    :      0.02s CPU      0.01s WALL (      10 calls)

     Called by *egterg:
     h_psi        :      0.31s CPU      0.32s WALL (     475 calls)
     s_psi        :      0.04s CPU      0.03s WALL (     475 calls)
     g_psi        :      0.00s CPU      0.01s WALL (     321 calls)
     cdiaghg      :      0.07s CPU      0.08s WALL (     461 calls)

     Called by h_psi:
     h_psi:pot    :      0.30s CPU      0.31s WALL (     475 calls)
     h_psi:calbec :      0.02s CPU      0.03s WALL (     475 calls)
     vloc_psi     :      0.26s CPU      0.25s WALL (     475 calls)
     add_vuspsi   :      0.01s CPU      0.03s WALL (     475 calls)

     General routines
     calbec       :      0.04s CPU      0.04s WALL (     685 calls)
     fft          :      0.00s CPU      0.00s WALL (     147 calls)
     ffts         :      0.00s CPU      0.00s WALL (      10 calls)
     fftw         :      0.25s CPU      0.24s WALL (    9192 calls)

     Parallel routines

     PWSCF        :     3.89s CPU         4.04s WALL


   This run was terminated on:   0:43:34  30Oct2019            

=------------------------------------------------------------------------------=
   JOB DONE.
=------------------------------------------------------------------------------=
