
     Program PWSCF v.6.3 starts on 12Mar2020 at  1: 8: 5 

     This program is part of the open-source Quantum ESPRESSO suite
     for quantum simulation of materials; please cite
         "P. Giannozzi et al., J. Phys.:Condens. Matter 21 395502 (2009);
         "P. Giannozzi et al., J. Phys.:Condens. Matter 29 465901 (2017);
          URL http://www.quantum-espresso.org", 
     in publications or presentations arising from this work. More details at
     http://www.quantum-espresso.org/quote

     Parallel version (MPI & OpenMP), running on      20 processor cores
     Number of MPI processes:                20
     Threads/MPI process:                     1

     MPI processes distributed on     1 nodes
     R & G space division:  proc/nbgrp/npool/nimage =      20
     Reading input from wd/kpoints/file_000141.in
Warning: card &IONS ignored
Warning: card ION_DYNAMICS = 'BFGS', ignored
Warning: card / ignored
Warning: card &CELL ignored
Warning: card CELL_DYNAMICS = 'BFGS', ignored
Warning: card CELL_FACTOR = 2.0, ignored
Warning: card PRESS = 0.0, ignored
Warning: card / ignored

     Current dimensions of program PWSCF are:
     Max number of different atomic species (ntypx) = 10
     Max number of k-points (npk) =  40000
     Max angular momentum in pseudopotentials (lmaxx) =  3
     Message from routine read_upf::
     Pseudo file /rds/homes/b/bxp912/pp/Al.pbe-nl-kjpaw_psl.1.0.0.UPF has been successfully fixed on the fly.
To avoid this message in the future you can permanently fix 
 your pseudo files following instructions given in: 
https://gitlab.com/QEF/q-e/blob/master/upftools/how_to_fix_upf.md
               file Al.pbe-nl-kjpaw_psl.1.0.0.UPF: wavefunction(s)  3S 3P renormalized

     Subspace diagonalization in iterative solution of the eigenvalue problem:
     a serial algorithm will be used

 
     Parallelization info
     --------------------
     sticks:   dense  smooth     PW     G-vecs:    dense   smooth      PW
     Min          96      96     27                 3225     3198     487
     Max          98      97     28                 3241     3201     490
     Sum        1941    1933    553                64589    63989    9771
 


     bravais-lattice index     =            0
     lattice parameter (alat)  =      15.2712  a.u.
     unit-cell volume          =    3561.3897 (a.u.)^3
     number of atoms/cell      =           32
     number of atomic types    =            1
     number of electrons       =        96.00
     number of Kohn-Sham states=           58
     kinetic-energy cutoff     =      26.0000  Ry
     charge density cutoff     =     105.0000  Ry
     convergence threshold     =      1.0E-06
     mixing beta               =       0.1000
     number of iterations used =           10  TF        mixing
     Exchange-correlation      = SLA PW PBX PBC ( 1  4  3  4 0 0)

     celldm(1)=  15.271200  celldm(2)=   0.000000  celldm(3)=   0.000000
     celldm(4)=   0.000000  celldm(5)=   0.000000  celldm(6)=   0.000000

     crystal axes: (cart. coord. in units of alat)
               a(1) = (   1.000000   0.000000   0.000000 )  
               a(2) = (   0.000000   1.000000   0.000000 )  
               a(3) = (   0.000000   0.000000   1.000000 )  

     reciprocal axes: (cart. coord. in units 2 pi/alat)
               b(1) = (  1.000000  0.000000  0.000000 )  
               b(2) = (  0.000000  1.000000  0.000000 )  
               b(3) = (  0.000000  0.000000  1.000000 )  


     PseudoPot. # 1 for Al read from file:
     /rds/homes/b/bxp912/pp/Al.pbe-nl-kjpaw_psl.1.0.0.UPF
     MD5 check sum: 339dbea23cf3ab9a065ad45c0f9085d7
     Pseudo is Projector augmented-wave + core cor, Zval =  3.0
     Generated using "atomic" code by A. Dal Corso v.5.1
     Shape of augmentation charge: PSQ
     Using radial grid of 1135 points,  4 beta functions with: 
                l(1) =   0
                l(2) =   0
                l(3) =   1
                l(4) =   1
     Q(r) pseudized with 0 coefficients 


     atomic species   valence    mass     pseudopotential
        Al             3.00    26.98200     Al( 1.00)

     No symmetry found



   Cartesian axes

     site n.     atom                  positions (alat units)
         1           Al  tau(   1) = (  -0.0000327   0.0000095   0.0000680  )
         2           Al  tau(   2) = (   0.2500796   0.2498100   0.0000703  )
         3           Al  tau(   3) = (   0.2499071   0.0000305   0.2502955  )
         4           Al  tau(   4) = (  -0.0000200   0.2502187   0.2501837  )
         5           Al  tau(   5) = (   0.0002558   0.0002521   0.4998810  )
         6           Al  tau(   6) = (   0.2501194   0.2498326   0.5000036  )
         7           Al  tau(   7) = (   0.2500278   0.0001539   0.7498880  )
         8           Al  tau(   8) = (   0.0000549   0.2501136   0.7502101  )
         9           Al  tau(   9) = (   0.0002375   0.5001078  -0.0000154  )
        10           Al  tau(  10) = (   0.2501396   0.7501762   0.0004054  )
        11           Al  tau(  11) = (   0.2501891   0.5001088   0.2502510  )
        12           Al  tau(  12) = (   0.0000383   0.7500455   0.2500253  )
        13           Al  tau(  13) = (   0.0001102   0.5001562   0.5000990  )
        14           Al  tau(  14) = (   0.2499640   0.7500632   0.4998706  )
        15           Al  tau(  15) = (   0.2503366   0.4997894   0.7496960  )
        16           Al  tau(  16) = (  -0.0003280   0.7497055   0.7499931  )
        17           Al  tau(  17) = (   0.5002037  -0.0001004  -0.0000387  )
        18           Al  tau(  18) = (   0.7499123   0.2500941  -0.0002332  )
        19           Al  tau(  19) = (   0.7496354  -0.0000959   0.2500771  )
        20           Al  tau(  20) = (   0.4999751   0.2499614   0.2498317  )
        21           Al  tau(  21) = (   0.4999211   0.0002929   0.4999726  )
        22           Al  tau(  22) = (   0.7500684   0.2496958   0.4999523  )
        23           Al  tau(  23) = (   0.7500357  -0.0000687   0.7500257  )
        24           Al  tau(  24) = (   0.5000114   0.2498864   0.7499948  )
        25           Al  tau(  25) = (   0.4998526   0.5001156  -0.0002192  )
        26           Al  tau(  26) = (   0.7497723   0.7500978   0.0002736  )
        27           Al  tau(  27) = (   0.7501007   0.4998018   0.2499462  )
        28           Al  tau(  28) = (   0.5000878   0.7497908   0.2502093  )
        29           Al  tau(  29) = (   0.4996761   0.5001027   0.5000404  )
        30           Al  tau(  30) = (   0.7501658   0.7499872   0.4998547  )
        31           Al  tau(  31) = (   0.7499472   0.5000095   0.7501393  )
        32           Al  tau(  32) = (   0.5000142   0.7499486   0.7499177  )

     number of k points=    14  Marzari-Vanderbilt smearing, width (Ry)=  0.0500
                       cart. coord. in units 2pi/alat
        k(    1) = (   0.1666667   0.1666667   0.1666667), wk =   0.1481481
        k(    2) = (   0.1666667   0.1666667  -0.5000000), wk =   0.1481481
        k(    3) = (   0.1666667  -0.5000000  -0.5000000), wk =   0.1481481
        k(    4) = (  -0.5000000  -0.5000000  -0.5000000), wk =   0.0740741
        k(    5) = (  -0.1666667  -0.1666667   0.1666667), wk =   0.1481481
        k(    6) = (  -0.1666667   0.1666667  -0.1666667), wk =   0.1481481
        k(    7) = (   0.1666667  -0.1666667  -0.1666667), wk =   0.1481481
        k(    8) = (  -0.1666667   0.1666667   0.5000000), wk =   0.1481481
        k(    9) = (  -0.5000000  -0.1666667   0.1666667), wk =   0.1481481
        k(   10) = (   0.5000000  -0.1666667  -0.1666667), wk =   0.1481481
        k(   11) = (  -0.1666667  -0.5000000   0.1666667), wk =   0.1481481
        k(   12) = (  -0.1666667   0.5000000  -0.1666667), wk =   0.1481481
        k(   13) = (  -0.5000000   0.1666667   0.5000000), wk =   0.1481481
        k(   14) = (  -0.5000000   0.5000000   0.1666667), wk =   0.1481481

     Dense  grid:    64589 G-vectors     FFT dimensions: (  50,  50,  50)

     Smooth grid:    63989 G-vectors     FFT dimensions: (  50,  50,  50)

     Estimated max dynamical RAM per process >      16.38 MB

     Estimated total dynamical RAM >     327.61 MB

     Initial potential from superposition of free atoms

     starting charge   95.92671, renormalised to   96.00000
     Starting wfcs are  128 randomized atomic wfcs
     Checking if some PAW data can be deallocated... 

     total cpu time spent up to now is        2.3 secs

     Self-consistent Calculation

     iteration #  1     ecut=    26.00 Ry     beta= 0.10
     Davidson diagonalization with overlap
     ethr =  1.00E-02,  avg # of iterations =  3.0

     Threshold (ethr) on eigenvalues was too large:
     Diagonalizing with lowered threshold

     Davidson diagonalization with overlap
     ethr =  1.93E-04,  avg # of iterations =  3.6

     total cpu time spent up to now is        6.7 secs

     total energy              =   -1264.09813964 Ry
     Harris-Foulkes estimate   =   -1264.10433880 Ry
     estimated scf accuracy    <       0.18043105 Ry

     iteration #  2     ecut=    26.00 Ry     beta= 0.10
     Davidson diagonalization with overlap
     ethr =  1.88E-04,  avg # of iterations =  1.0

     total cpu time spent up to now is        8.2 secs

     total energy              =   -1264.05098598 Ry
     Harris-Foulkes estimate   =   -1264.09893741 Ry
     estimated scf accuracy    <       0.15661315 Ry

     iteration #  3     ecut=    26.00 Ry     beta= 0.10
     Davidson diagonalization with overlap
     ethr =  1.63E-04,  avg # of iterations =  1.0

     total cpu time spent up to now is        9.6 secs

     total energy              =   -1264.05387065 Ry
     Harris-Foulkes estimate   =   -1264.05400799 Ry
     estimated scf accuracy    <       0.00061279 Ry

     iteration #  4     ecut=    26.00 Ry     beta= 0.10
     Davidson diagonalization with overlap
     ethr =  6.38E-07,  avg # of iterations =  5.2

     total cpu time spent up to now is       12.6 secs

     total energy              =   -1264.05448927 Ry
     Harris-Foulkes estimate   =   -1264.05465088 Ry
     estimated scf accuracy    <       0.00035556 Ry

     iteration #  5     ecut=    26.00 Ry     beta= 0.10
     Davidson diagonalization with overlap
     ethr =  3.70E-07,  avg # of iterations =  1.0

     total cpu time spent up to now is       14.0 secs

     total energy              =   -1264.05430394 Ry
     Harris-Foulkes estimate   =   -1264.05449964 Ry
     estimated scf accuracy    <       0.00022859 Ry

     iteration #  6     ecut=    26.00 Ry     beta= 0.10
     Davidson diagonalization with overlap
     ethr =  2.38E-07,  avg # of iterations =  2.5

     total cpu time spent up to now is       16.1 secs

     total energy              =   -1264.05436581 Ry
     Harris-Foulkes estimate   =   -1264.05436668 Ry
     estimated scf accuracy    <       0.00001349 Ry

     iteration #  7     ecut=    26.00 Ry     beta= 0.10
     Davidson diagonalization with overlap
     ethr =  1.40E-08,  avg # of iterations =  4.3

     total cpu time spent up to now is       18.2 secs

     total energy              =   -1264.05435759 Ry
     Harris-Foulkes estimate   =   -1264.05436678 Ry
     estimated scf accuracy    <       0.00000569 Ry

     iteration #  8     ecut=    26.00 Ry     beta= 0.10
     Davidson diagonalization with overlap
     ethr =  5.93E-09,  avg # of iterations =  2.4

     total cpu time spent up to now is       20.0 secs

     End of self-consistent calculation

          k = 0.1667 0.1667 0.1667 (  8003 PWs)   bands (ev):

    -3.0433  -1.5439  -1.5415  -1.5386  -0.0589  -0.0582  -0.0560  -0.0550
    -0.0535  -0.0500   1.4116   1.4128   1.4149   1.4161   1.4171   1.4178
     1.4200   2.8659   2.8677   2.8690   2.8697   2.8716   2.8741   4.2336
     4.2343   4.2350   4.3310   4.3318   4.3326   5.6427   5.6430   5.6459
     5.6466   5.6479   5.6492   5.7596   7.0608   7.0611   7.0628   7.0645
     7.0654   7.0661   7.0746   7.0770   7.0801   7.4080   7.4087   7.4095
     8.4789   8.4795   8.4811   8.4825   8.4837   8.4842   8.8189   8.8203
     8.8213   8.8234

          k = 0.1667 0.1667-0.5000 (  7946 PWs)   bands (ev):

    -2.5421  -2.5397  -1.0459  -1.0452  -1.0436  -1.0419   0.4330   0.4348
     0.4364   0.4375   0.4391   0.4397   1.8952   1.8965   1.9012   1.9019
     1.9037   1.9045   3.3444   3.3454   3.3459   3.3461   3.3485   3.3505
     4.7058   4.7063   4.7083   4.7090   4.7728   4.7740   4.7741   4.7753
     4.8033   4.8045   6.1401   6.1408   6.1424   6.1442   6.2245   6.2250
     6.2258   6.2267   7.5411   7.5417   7.5434   7.5451   7.6422   7.6435
     7.8573   7.8580   7.8597   7.8607   8.9803   8.9806   8.9818   8.9825
     9.3408   9.3428

          k = 0.1667-0.5000-0.5000 (  7948 PWs)   bands (ev):

    -2.0425  -2.0415  -2.0391  -2.0377  -0.5509  -0.5499  -0.5476  -0.5462
     0.9246   0.9257   0.9280   0.9294   2.3772   2.3786   2.3793   2.3802
     2.3811   2.3832   2.3842   2.3848   3.8171   3.8185   3.8192   3.8202
     3.8209   3.8232   3.8241   3.8248   5.1723   5.1734   5.1759   5.1774
     5.2762   5.2775   5.2782   5.2791   5.2802   5.2822   5.2832   5.2839
     6.6689   6.6695   6.6707   6.6715   8.1011   8.1017   8.1029   8.1037
     8.4125   8.4134   8.4154   8.4167   9.3906   9.3919   9.3934   9.3942
     9.3969   9.3983

          k =-0.5000-0.5000-0.5000 (  8024 PWs)   bands (ev):

    -1.5460  -1.5452  -1.5426  -1.5420  -1.5409  -1.5390  -1.5386  -1.5359
     2.8565   2.8569   2.8582   2.8588   2.8600   2.8610   2.8612   2.8622
     2.8625   2.8631   2.8634   2.8639   2.8643   2.8647   2.8653   2.8654
     2.8663   2.8672   2.8677   2.8680   2.8689   2.8704   2.8718   2.8739
     7.1500   7.1510   7.1517   7.1523   7.1534   7.1540   7.1544   7.1547
     7.1548   7.1556   7.1567   7.1572   7.1579   7.1581   7.1584   7.1590
     7.1595   7.1602   7.1605   7.1608   7.1618   7.1624   7.1641   7.1643
    11.3567  11.5715

          k =-0.1667-0.1667 0.1667 (  8003 PWs)   bands (ev):

    -3.0433  -1.5433  -1.5415  -1.5391  -0.0587  -0.0574  -0.0562  -0.0547
    -0.0524  -0.0522   1.4110   1.4142   1.4147   1.4156   1.4169   1.4178
     1.4201   2.8668   2.8678   2.8685   2.8698   2.8713   2.8738   4.2339
     4.2343   4.2347   4.3313   4.3318   4.3322   5.6417   5.6447   5.6452
     5.6462   5.6479   5.6494   5.7596   7.0608   7.0623   7.0630   7.0640
     7.0648   7.0658   7.0751   7.0771   7.0795   7.4083   7.4088   7.4092
     8.4792   8.4804   8.4813   8.4821   8.4827   8.4842   8.8190   8.8203
     8.8218   8.8228

          k =-0.1667 0.1667-0.1667 (  8003 PWs)   bands (ev):

    -3.0433  -1.5438  -1.5413  -1.5388  -0.0592  -0.0578  -0.0556  -0.0545
    -0.0531  -0.0515   1.4121   1.4128   1.4142   1.4154   1.4174   1.4186
     1.4199   2.8671   2.8675   2.8683   2.8696   2.8717   2.8737   4.2336
     4.2343   4.2351   4.3310   4.3318   4.3326   5.6428   5.6434   5.6446
     5.6459   5.6485   5.6501   5.7596   7.0609   7.0617   7.0624   7.0642
     7.0653   7.0662   7.0746   7.0771   7.0797   7.4079   7.4088   7.4096
     8.4791   8.4799   8.4806   8.4827   8.4833   8.4843   8.8193   8.8201
     8.8215   8.8230

          k = 0.1667-0.1667-0.1667 (  8003 PWs)   bands (ev):

    -3.0433  -1.5435  -1.5420  -1.5385  -0.0592  -0.0575  -0.0561  -0.0554
    -0.0542  -0.0492   1.4122   1.4128   1.4137   1.4157   1.4168   1.4174
     1.4217   2.8661   2.8672   2.8684   2.8702   2.8711   2.8749   4.2335
     4.2343   4.2352   4.3309   4.3318   4.3327   5.6425   5.6436   5.6450
     5.6463   5.6476   5.6502   5.7596   7.0604   7.0619   7.0624   7.0641
     7.0646   7.0665   7.0753   7.0768   7.0802   7.4078   7.4088   7.4097
     8.4785   8.4803   8.4808   8.4827   8.4831   8.4844   8.8193   8.8196
     8.8217   8.8229

          k =-0.1667 0.1667 0.5000 (  7946 PWs)   bands (ev):

    -2.5421  -2.5397  -1.0465  -1.0445  -1.0440  -1.0416   0.4332   0.4342
     0.4360   0.4376   0.4390   0.4404   1.8950   1.8963   1.9011   1.9023
     1.9035   1.9049   3.3441   3.3452   3.3460   3.3472   3.3482   3.3502
     4.7054   4.7067   4.7080   4.7093   4.7724   4.7736   4.7744   4.7756
     4.8033   4.8046   6.1394   6.1415   6.1420   6.1446   6.2240   6.2252
     6.2258   6.2269   7.5409   7.5420   7.5435   7.5449   7.6422   7.6435
     7.8568   7.8585   7.8594   7.8610   8.9800   8.9809   8.9818   8.9826
     9.3406   9.3423

          k =-0.5000-0.1667 0.1667 (  7946 PWs)   bands (ev):

    -2.5422  -2.5395  -1.0471  -1.0444  -1.0434  -1.0417   0.4334   0.4352
     0.4361   0.4375   0.4385   0.4399   1.8952   1.8962   1.9013   1.9018
     1.9036   1.9049   3.3440   3.3452   3.3462   3.3474   3.3479   3.3502
     4.7058   4.7061   4.7081   4.7094   4.7723   4.7736   4.7746   4.7758
     4.8031   4.8046   6.1388   6.1416   6.1427   6.1444   6.2243   6.2250
     6.2254   6.2271   7.5404   7.5421   7.5439   7.5449   7.6421   7.6436
     7.8573   7.8578   7.8594   7.8612   8.9798   8.9810   8.9813   8.9831
     9.3399   9.3434

          k = 0.5000-0.1667-0.1667 (  7946 PWs)   bands (ev):

    -2.5422  -2.5395  -1.0474  -1.0442  -1.0436  -1.0414   0.4321   0.4349
     0.4358   0.4375   0.4384   0.4418   1.8953   1.8961   1.9008   1.9023
     1.9039   1.9047   3.3434   3.3446   3.3463   3.3473   3.3485   3.3508
     4.7054   4.7065   4.7082   4.7093   4.7716   4.7730   4.7751   4.7762
     4.8033   4.8047   6.1385   6.1418   6.1424   6.1447   6.2240   6.2252
     6.2258   6.2268   7.5406   7.5419   7.5431   7.5456   7.6421   7.6436
     7.8568   7.8583   7.8596   7.8610   8.9800   8.9808   8.9819   8.9826
     9.3401   9.3424

          k =-0.1667-0.5000 0.1667 (  7946 PWs)   bands (ev):

    -2.5412  -2.5406  -1.0463  -1.0457  -1.0431  -1.0415   0.4336   0.4343
     0.4363   0.4366   0.4388   0.4409   1.8954   1.8960   1.9024   1.9026
     1.9031   1.9036   3.3438   3.3441   3.3471   3.3476   3.3487   3.3495
     4.7070   4.7071   4.7076   4.7077   4.7722   4.7723   4.7755   4.7760
     4.8038   4.8041   6.1397   6.1403   6.1429   6.1446   6.2252   6.2253
     6.2256   6.2258   7.5412   7.5424   7.5436   7.5441   7.6427   7.6431
     7.8585   7.8587   7.8592   7.8593   8.9810   8.9811   8.9816   8.9816
     9.3406   9.3428

          k =-0.1667 0.5000-0.1667 (  7946 PWs)   bands (ev):

    -2.5412  -2.5406  -1.0465  -1.0460  -1.0426  -1.0416   0.4336   0.4346
     0.4366   0.4374   0.4383   0.4400   1.8953   1.8959   1.9024   1.9027
     1.9029   1.9038   3.3434   3.3438   3.3471   3.3476   3.3492   3.3496
     4.7070   4.7070   4.7071   4.7083   4.7718   4.7721   4.7760   4.7764
     4.8037   4.8040   6.1394   6.1401   6.1435   6.1445   6.2249   6.2252
     6.2253   6.2264   7.5415   7.5420   7.5435   7.5444   7.6427   7.6431
     7.8584   7.8586   7.8587   7.8600   8.9807   8.9809   8.9814   8.9823
     9.3410   9.3415

          k =-0.5000 0.1667 0.5000 (  7948 PWs)   bands (ev):

    -2.0439  -2.0412  -2.0390  -2.0368  -0.5523  -0.5496  -0.5474  -0.5452
     0.9233   0.9260   0.9282   0.9304   2.3768   2.3775   2.3789   2.3812
     2.3822   2.3825   2.3837   2.3857   3.8167   3.8174   3.8189   3.8212
     3.8222   3.8224   3.8237   3.8256   5.1708   5.1736   5.1761   5.1784
     5.2757   5.2765   5.2778   5.2802   5.2811   5.2817   5.2827   5.2848
     6.6683   6.6695   6.6709   6.6719   8.1004   8.1019   8.1029   8.1041
     8.4112   8.4137   8.4154   8.4176   9.3903   9.3915   9.3949   9.3956
     9.3972   9.3987

          k =-0.5000 0.5000 0.1667 (  7948 PWs)   bands (ev):

    -2.0423  -2.0412  -2.0387  -2.0386  -0.5508  -0.5496  -0.5472  -0.5470
     0.9248   0.9259   0.9284   0.9286   2.3773   2.3786   2.3792   2.3807
     2.3814   2.3830   2.3839   2.3845   3.8172   3.8186   3.8191   3.8207
     3.8213   3.8229   3.8239   3.8244   5.1725   5.1737   5.1763   5.1765
     5.2763   5.2776   5.2783   5.2796   5.2804   5.2821   5.2827   5.2835
     6.6690   6.6697   6.6709   6.6710   8.1012   8.1018   8.1031   8.1032
     8.4125   8.4136   8.4159   8.4160   9.3909   9.3922   9.3927   9.3949
     9.3961   9.3975

     the Fermi energy is     7.8823 ev

!    total energy              =   -1264.05435846 Ry
     Harris-Foulkes estimate   =   -1264.05435829 Ry
     estimated scf accuracy    <       0.00000087 Ry

     total all-electron energy =    -15540.623380 Ry

     The total energy is the sum of the following terms:

     one-electron contribution =     101.29039076 Ry
     hartree contribution      =       0.20034424 Ry
     xc contribution           =     -82.91709425 Ry
     ewald contribution        =    -172.93188273 Ry
     one-center paw contrib.   =   -1109.68561019 Ry
     smearing contrib. (-TS)   =      -0.01050630 Ry

     convergence has been achieved in   8 iterations

     Forces acting on atoms (cartesian axes, Ry/au):

     atom    1 type  1   force =    -0.00000825   -0.00001831    0.00001476
     atom    2 type  1   force =    -0.00010270    0.00022870    0.00008241
     atom    3 type  1   force =     0.00022501    0.00000599   -0.00051812
     atom    4 type  1   force =    -0.00000563   -0.00019775   -0.00033530
     atom    5 type  1   force =    -0.00043883   -0.00036041    0.00032670
     atom    6 type  1   force =    -0.00017427    0.00038847   -0.00003376
     atom    7 type  1   force =    -0.00017897   -0.00054131    0.00033526
     atom    8 type  1   force =    -0.00000501   -0.00006161   -0.00027169
     atom    9 type  1   force =    -0.00001221   -0.00004406    0.00009652
     atom   10 type  1   force =    -0.00020967   -0.00009618   -0.00067501
     atom   11 type  1   force =    -0.00024813   -0.00028424   -0.00038725
     atom   12 type  1   force =    -0.00014541    0.00002680   -0.00005442
     atom   13 type  1   force =    -0.00017479   -0.00033078   -0.00003320
     atom   14 type  1   force =    -0.00002393    0.00013411    0.00046033
     atom   15 type  1   force =    -0.00051755    0.00037569    0.00051321
     atom   16 type  1   force =     0.00065548    0.00050987    0.00016110
     atom   17 type  1   force =    -0.00038214    0.00006667    0.00006949
     atom   18 type  1   force =     0.00018859   -0.00009428    0.00039894
     atom   19 type  1   force =     0.00053415    0.00021697   -0.00009601
     atom   20 type  1   force =     0.00008414    0.00021683    0.00006755
     atom   21 type  1   force =     0.00019243   -0.00055890    0.00010588
     atom   22 type  1   force =    -0.00009323    0.00059926    0.00017470
     atom   23 type  1   force =     0.00012320   -0.00007302   -0.00016340
     atom   24 type  1   force =     0.00013519    0.00011386   -0.00004291
     atom   25 type  1   force =     0.00007758   -0.00018840    0.00031892
     atom   26 type  1   force =     0.00032130   -0.00021518   -0.00024284
     atom   27 type  1   force =    -0.00017240    0.00006649    0.00012117
     atom   28 type  1   force =    -0.00008586    0.00024808   -0.00008211
     atom   29 type  1   force =     0.00083602   -0.00032808   -0.00010354
     atom   30 type  1   force =    -0.00025040    0.00003764    0.00020456
     atom   31 type  1   force =    -0.00003883   -0.00010354   -0.00036888
     atom   32 type  1   force =    -0.00010490    0.00026062   -0.00004305

     Total force =     0.002737     Total SCF correction =     0.000496
     SCF correction compared to forces is large: reduce conv_thr to get better values


     Computing stress (Cartesian axis) and pressure

          total   stress  (Ry/bohr**3)                   (kbar)     P=   -1.15
  -0.00000788   0.00000001  -0.00000003         -1.16      0.00     -0.00
   0.00000001  -0.00000780   0.00000013          0.00     -1.15      0.02
  -0.00000003   0.00000013  -0.00000777         -0.00      0.02     -1.14


     Writing output data file fe_scf_fcc_2.save/
 
     init_run     :      1.31s CPU      1.45s WALL (       1 calls)
     electrons    :     17.33s CPU     17.71s WALL (       1 calls)
     forces       :      0.28s CPU      0.29s WALL (       1 calls)
     stress       :      0.86s CPU      0.87s WALL (       1 calls)

     Called by init_run:
     wfcinit      :      1.13s CPU      1.17s WALL (       1 calls)
     potinit      :      0.11s CPU      0.12s WALL (       1 calls)
     hinit0       :      0.04s CPU      0.14s WALL (       1 calls)

     Called by electrons:
     c_bands      :     14.49s CPU     14.77s WALL (       9 calls)
     sum_band     :      1.92s CPU      2.00s WALL (       9 calls)
     v_of_rho     :      0.06s CPU      0.07s WALL (       9 calls)
     newd         :      0.05s CPU      0.05s WALL (       9 calls)
     PAW_pot      :      0.87s CPU      0.88s WALL (       9 calls)
     mix_rho      :      0.02s CPU      0.02s WALL (       9 calls)

     Called by c_bands:
     init_us_2    :      0.17s CPU      0.17s WALL (     294 calls)
     cegterg      :     13.90s CPU     14.16s WALL (     126 calls)

     Called by sum_band:
     sum_band:bec :      0.01s CPU      0.01s WALL (     126 calls)
     addusdens    :      0.02s CPU      0.03s WALL (       9 calls)

     Called by *egterg:
     h_psi        :      9.56s CPU      9.80s WALL (     476 calls)
     s_psi        :      0.43s CPU      0.43s WALL (     476 calls)
     g_psi        :      0.02s CPU      0.02s WALL (     336 calls)
     cdiaghg      :      2.48s CPU      2.50s WALL (     448 calls)

     Called by h_psi:
     h_psi:pot    :      9.53s CPU      9.76s WALL (     476 calls)
     h_psi:calbec :      0.90s CPU      0.94s WALL (     476 calls)
     vloc_psi     :      8.16s CPU      8.35s WALL (     476 calls)
     add_vuspsi   :      0.47s CPU      0.48s WALL (     476 calls)

     General routines
     calbec       :      1.72s CPU      1.79s WALL (     672 calls)
     fft          :      0.13s CPU      0.23s WALL (     142 calls)
     ffts         :      0.01s CPU      0.01s WALL (      18 calls)
     fftw         :      9.23s CPU      9.46s WALL (   49520 calls)
     interpolate  :      0.01s CPU      0.01s WALL (       9 calls)
 
     Parallel routines
     fft_scatt_xy :      0.52s CPU      0.53s WALL (   49680 calls)
     fft_scatt_yz :      6.74s CPU      6.96s WALL (   49680 calls)
 
     PWSCF        :    20.75s CPU        21.48s WALL

 
   This run was terminated on:   1: 8:27  12Mar2020            

=------------------------------------------------------------------------------=
   JOB DONE.
=------------------------------------------------------------------------------=
