
     Program PWSCF v.6.3 starts on 12Mar2020 at  1:45:37 

     This program is part of the open-source Quantum ESPRESSO suite
     for quantum simulation of materials; please cite
         "P. Giannozzi et al., J. Phys.:Condens. Matter 21 395502 (2009);
         "P. Giannozzi et al., J. Phys.:Condens. Matter 29 465901 (2017);
          URL http://www.quantum-espresso.org", 
     in publications or presentations arising from this work. More details at
     http://www.quantum-espresso.org/quote

     Parallel version (MPI & OpenMP), running on      20 processor cores
     Number of MPI processes:                20
     Threads/MPI process:                     1

     MPI processes distributed on     1 nodes
     R & G space division:  proc/nbgrp/npool/nimage =      20
     Reading input from wd/kpoints/file_000157.in
Warning: card &IONS ignored
Warning: card ION_DYNAMICS = 'BFGS', ignored
Warning: card / ignored
Warning: card &CELL ignored
Warning: card CELL_DYNAMICS = 'BFGS', ignored
Warning: card CELL_FACTOR = 2.0, ignored
Warning: card PRESS = 0.0, ignored
Warning: card / ignored

     Current dimensions of program PWSCF are:
     Max number of different atomic species (ntypx) = 10
     Max number of k-points (npk) =  40000
     Max angular momentum in pseudopotentials (lmaxx) =  3
     Message from routine read_upf::
     Pseudo file /rds/homes/b/bxp912/pp/Al.pbe-nl-kjpaw_psl.1.0.0.UPF has been successfully fixed on the fly.
To avoid this message in the future you can permanently fix 
 your pseudo files following instructions given in: 
https://gitlab.com/QEF/q-e/blob/master/upftools/how_to_fix_upf.md
               file Al.pbe-nl-kjpaw_psl.1.0.0.UPF: wavefunction(s)  3S 3P renormalized

     Subspace diagonalization in iterative solution of the eigenvalue problem:
     a serial algorithm will be used

 
     Parallelization info
     --------------------
     sticks:   dense  smooth     PW     G-vecs:    dense   smooth      PW
     Min          96      96     27                 3225     3198     487
     Max          98      97     28                 3241     3201     490
     Sum        1941    1933    553                64589    63989    9771
 


     bravais-lattice index     =            0
     lattice parameter (alat)  =      15.2712  a.u.
     unit-cell volume          =    3561.3897 (a.u.)^3
     number of atoms/cell      =           32
     number of atomic types    =            1
     number of electrons       =        96.00
     number of Kohn-Sham states=           58
     kinetic-energy cutoff     =      26.0000  Ry
     charge density cutoff     =     105.0000  Ry
     convergence threshold     =      1.0E-06
     mixing beta               =       0.1000
     number of iterations used =           10  TF        mixing
     Exchange-correlation      = SLA PW PBX PBC ( 1  4  3  4 0 0)

     celldm(1)=  15.271200  celldm(2)=   0.000000  celldm(3)=   0.000000
     celldm(4)=   0.000000  celldm(5)=   0.000000  celldm(6)=   0.000000

     crystal axes: (cart. coord. in units of alat)
               a(1) = (   1.000000   0.000000   0.000000 )  
               a(2) = (   0.000000   1.000000   0.000000 )  
               a(3) = (   0.000000   0.000000   1.000000 )  

     reciprocal axes: (cart. coord. in units 2 pi/alat)
               b(1) = (  1.000000  0.000000  0.000000 )  
               b(2) = (  0.000000  1.000000  0.000000 )  
               b(3) = (  0.000000  0.000000  1.000000 )  


     PseudoPot. # 1 for Al read from file:
     /rds/homes/b/bxp912/pp/Al.pbe-nl-kjpaw_psl.1.0.0.UPF
     MD5 check sum: 339dbea23cf3ab9a065ad45c0f9085d7
     Pseudo is Projector augmented-wave + core cor, Zval =  3.0
     Generated using "atomic" code by A. Dal Corso v.5.1
     Shape of augmentation charge: PSQ
     Using radial grid of 1135 points,  4 beta functions with: 
                l(1) =   0
                l(2) =   0
                l(3) =   1
                l(4) =   1
     Q(r) pseudized with 0 coefficients 


     atomic species   valence    mass     pseudopotential
        Al             3.00    26.98200     Al( 1.00)

     No symmetry found



   Cartesian axes

     site n.     atom                  positions (alat units)
         1           Al  tau(   1) = (  -0.0000327   0.0000095   0.0000680  )
         2           Al  tau(   2) = (   0.2500796   0.2498100   0.0000703  )
         3           Al  tau(   3) = (   0.2499071   0.0000305   0.2502955  )
         4           Al  tau(   4) = (  -0.0000200   0.2502187   0.2501837  )
         5           Al  tau(   5) = (   0.0002558   0.0002521   0.4998810  )
         6           Al  tau(   6) = (   0.2501194   0.2498326   0.5000036  )
         7           Al  tau(   7) = (   0.2500278   0.0001539   0.7498880  )
         8           Al  tau(   8) = (   0.0000549   0.2501136   0.7502101  )
         9           Al  tau(   9) = (   0.0002375   0.5001078  -0.0000154  )
        10           Al  tau(  10) = (   0.2501396   0.7501762   0.0004054  )
        11           Al  tau(  11) = (   0.2501891   0.5001088   0.2502510  )
        12           Al  tau(  12) = (   0.0000383   0.7500455   0.2500253  )
        13           Al  tau(  13) = (   0.0001102   0.5001562   0.5000990  )
        14           Al  tau(  14) = (   0.2499640   0.7500632   0.4998706  )
        15           Al  tau(  15) = (   0.2503366   0.4997894   0.7496960  )
        16           Al  tau(  16) = (  -0.0003280   0.7497055   0.7499931  )
        17           Al  tau(  17) = (   0.5002037  -0.0001004  -0.0000387  )
        18           Al  tau(  18) = (   0.7499123   0.2500941  -0.0002332  )
        19           Al  tau(  19) = (   0.7496354  -0.0000959   0.2500771  )
        20           Al  tau(  20) = (   0.4999751   0.2499614   0.2498317  )
        21           Al  tau(  21) = (   0.4999211   0.0002929   0.4999726  )
        22           Al  tau(  22) = (   0.7500684   0.2496958   0.4999523  )
        23           Al  tau(  23) = (   0.7500357  -0.0000687   0.7500257  )
        24           Al  tau(  24) = (   0.5000114   0.2498864   0.7499948  )
        25           Al  tau(  25) = (   0.4998526   0.5001156  -0.0002192  )
        26           Al  tau(  26) = (   0.7497723   0.7500978   0.0002736  )
        27           Al  tau(  27) = (   0.7501007   0.4998018   0.2499462  )
        28           Al  tau(  28) = (   0.5000878   0.7497908   0.2502093  )
        29           Al  tau(  29) = (   0.4996761   0.5001027   0.5000404  )
        30           Al  tau(  30) = (   0.7501658   0.7499872   0.4998547  )
        31           Al  tau(  31) = (   0.7499472   0.5000095   0.7501393  )
        32           Al  tau(  32) = (   0.5000142   0.7499486   0.7499177  )

     number of k points=   172  Marzari-Vanderbilt smearing, width (Ry)=  0.0100

     Number of k-points >= 100: set verbosity='high' to print them.

     Dense  grid:    64589 G-vectors     FFT dimensions: (  50,  50,  50)

     Smooth grid:    63989 G-vectors     FFT dimensions: (  50,  50,  50)

     Estimated max dynamical RAM per process >      72.03 MB

     Estimated total dynamical RAM >       1.41 GB

     Initial potential from superposition of free atoms

     starting charge   95.92671, renormalised to   96.00000
     Starting wfcs are  128 randomized atomic wfcs
     Checking if some PAW data can be deallocated... 

     total cpu time spent up to now is       15.3 secs

     Self-consistent Calculation

     iteration #  1     ecut=    26.00 Ry     beta= 0.10
     Davidson diagonalization with overlap
     ethr =  1.00E-02,  avg # of iterations =  3.0

     Threshold (ethr) on eigenvalues was too large:
     Diagonalizing with lowered threshold

     Davidson diagonalization with overlap
     ethr =  1.91E-04,  avg # of iterations =  4.3

     total cpu time spent up to now is       81.7 secs

     total energy              =   -1264.11507863 Ry
     Harris-Foulkes estimate   =   -1264.12128872 Ry
     estimated scf accuracy    <       0.17879789 Ry

     iteration #  2     ecut=    26.00 Ry     beta= 0.10
     Davidson diagonalization with overlap
     ethr =  1.86E-04,  avg # of iterations =  1.3

     total cpu time spent up to now is       98.5 secs

     total energy              =   -1264.06808380 Ry
     Harris-Foulkes estimate   =   -1264.11586919 Ry
     estimated scf accuracy    <       0.15511750 Ry

     iteration #  3     ecut=    26.00 Ry     beta= 0.10
     Davidson diagonalization with overlap
     ethr =  1.62E-04,  avg # of iterations =  1.0

     total cpu time spent up to now is      115.0 secs

     total energy              =   -1264.07088247 Ry
     Harris-Foulkes estimate   =   -1264.07103483 Ry
     estimated scf accuracy    <       0.00059568 Ry

     iteration #  4     ecut=    26.00 Ry     beta= 0.10
     Davidson diagonalization with overlap
     c_bands:  2 eigenvalues not converged
     c_bands:  1 eigenvalues not converged
     c_bands:  1 eigenvalues not converged
     c_bands:  1 eigenvalues not converged
     c_bands:  1 eigenvalues not converged
     c_bands:  2 eigenvalues not converged
     c_bands:  1 eigenvalues not converged
     c_bands:  1 eigenvalues not converged
     c_bands:  1 eigenvalues not converged
     c_bands:  1 eigenvalues not converged
     c_bands:  1 eigenvalues not converged
     c_bands:  1 eigenvalues not converged
     c_bands:  1 eigenvalues not converged
     c_bands:  2 eigenvalues not converged
     c_bands:  1 eigenvalues not converged
     c_bands:  2 eigenvalues not converged
     ethr =  6.21E-07,  avg # of iterations =  8.9

     total cpu time spent up to now is      157.7 secs

     total energy              =   -1264.07149306 Ry
     Harris-Foulkes estimate   =   -1264.07163927 Ry
     estimated scf accuracy    <       0.00038578 Ry

     iteration #  5     ecut=    26.00 Ry     beta= 0.10
     Davidson diagonalization with overlap
     ethr =  4.02E-07,  avg # of iterations =  1.2

     total cpu time spent up to now is      174.4 secs

     total energy              =   -1264.07127049 Ry
     Harris-Foulkes estimate   =   -1264.07150407 Ry
     estimated scf accuracy    <       0.00024940 Ry

     iteration #  6     ecut=    26.00 Ry     beta= 0.10
     Davidson diagonalization with overlap
     ethr =  2.60E-07,  avg # of iterations =  2.1

     total cpu time spent up to now is      198.1 secs

     total energy              =   -1264.07133670 Ry
     Harris-Foulkes estimate   =   -1264.07133527 Ry
     estimated scf accuracy    <       0.00000968 Ry

     iteration #  7     ecut=    26.00 Ry     beta= 0.10
     Davidson diagonalization with overlap
     ethr =  1.01E-08,  avg # of iterations =  3.0

     total cpu time spent up to now is      219.4 secs

     total energy              =   -1264.07133173 Ry
     Harris-Foulkes estimate   =   -1264.07133765 Ry
     estimated scf accuracy    <       0.00000556 Ry

     iteration #  8     ecut=    26.00 Ry     beta= 0.10
     Davidson diagonalization with overlap
     ethr =  5.79E-09,  avg # of iterations =  2.1

     total cpu time spent up to now is      245.8 secs

     End of self-consistent calculation

     Number of k-points >= 100: set verbosity='high' to print the bands.

     the Fermi energy is     7.9278 ev

!    total energy              =   -1264.07133292 Ry
     Harris-Foulkes estimate   =   -1264.07133235 Ry
     estimated scf accuracy    <       0.00000070 Ry

     total all-electron energy =    -15540.640355 Ry

     The total energy is the sum of the following terms:

     one-electron contribution =     101.26844502 Ry
     hartree contribution      =       0.19782497 Ry
     xc contribution           =     -82.91730770 Ry
     ewald contribution        =    -172.93188273 Ry
     one-center paw contrib.   =   -1109.68855317 Ry
     smearing contrib. (-TS)   =       0.00014069 Ry

     convergence has been achieved in   8 iterations

     Forces acting on atoms (cartesian axes, Ry/au):

     atom    1 type  1   force =    -0.00001249   -0.00002503    0.00000074
     atom    2 type  1   force =    -0.00012099    0.00023258    0.00007435
     atom    3 type  1   force =     0.00020230    0.00002048   -0.00052601
     atom    4 type  1   force =     0.00000630   -0.00020376   -0.00034421
     atom    5 type  1   force =    -0.00044524   -0.00034812    0.00033553
     atom    6 type  1   force =    -0.00018621    0.00036856   -0.00004164
     atom    7 type  1   force =    -0.00019892   -0.00052656    0.00034945
     atom    8 type  1   force =    -0.00002397   -0.00006550   -0.00026175
     atom    9 type  1   force =    -0.00002719   -0.00003337    0.00008914
     atom   10 type  1   force =    -0.00022851   -0.00010117   -0.00068556
     atom   11 type  1   force =    -0.00026626   -0.00028865   -0.00040053
     atom   12 type  1   force =    -0.00016865    0.00000965   -0.00006012
     atom   13 type  1   force =    -0.00018387   -0.00032214   -0.00003907
     atom   14 type  1   force =    -0.00003206    0.00012542    0.00047765
     atom   15 type  1   force =    -0.00051621    0.00039469    0.00053639
     atom   16 type  1   force =     0.00064811    0.00050980    0.00018474
     atom   17 type  1   force =    -0.00036089    0.00007493    0.00004629
     atom   18 type  1   force =     0.00020381   -0.00010388    0.00038313
     atom   19 type  1   force =     0.00055584    0.00021401   -0.00010117
     atom   20 type  1   force =     0.00008995    0.00021505    0.00006132
     atom   21 type  1   force =     0.00019569   -0.00055166    0.00011304
     atom   22 type  1   force =    -0.00006548    0.00059585    0.00018273
     atom   23 type  1   force =     0.00013396   -0.00006686   -0.00013435
     atom   24 type  1   force =     0.00013652    0.00009329   -0.00001395
     atom   25 type  1   force =     0.00007247   -0.00018422    0.00030976
     atom   26 type  1   force =     0.00033760   -0.00021833   -0.00025592
     atom   27 type  1   force =    -0.00015655    0.00009063    0.00010905
     atom   28 type  1   force =    -0.00007853    0.00023984   -0.00010763
     atom   29 type  1   force =     0.00083913   -0.00031986   -0.00010060
     atom   30 type  1   force =    -0.00023305    0.00003233    0.00020269
     atom   31 type  1   force =    -0.00001826   -0.00010337   -0.00035412
     atom   32 type  1   force =    -0.00009834    0.00024539   -0.00002935

     Total force =     0.002747     Total SCF correction =     0.000457
     SCF correction compared to forces is large: reduce conv_thr to get better values


     Computing stress (Cartesian axis) and pressure

          total   stress  (Ry/bohr**3)                   (kbar)     P=   -0.53
  -0.00000361  -0.00000000  -0.00000000         -0.53     -0.00     -0.00
  -0.00000000  -0.00000361   0.00000000         -0.00     -0.53      0.00
  -0.00000000   0.00000000  -0.00000361         -0.00      0.00     -0.53


     Writing output data file fe_scf_fcc_2.save/
 
     init_run     :     13.87s CPU     14.37s WALL (       1 calls)
     electrons    :    209.44s CPU    230.54s WALL (       1 calls)
     forces       :      2.87s CPU      2.98s WALL (       1 calls)
     stress       :      9.68s CPU      9.73s WALL (       1 calls)

     Called by init_run:
     wfcinit      :     13.58s CPU     13.99s WALL (       1 calls)
     potinit      :      0.11s CPU      0.12s WALL (       1 calls)
     hinit0       :      0.15s CPU      0.23s WALL (       1 calls)

     Called by electrons:
     c_bands      :    185.81s CPU    206.06s WALL (       9 calls)
     sum_band     :     22.65s CPU     23.48s WALL (       9 calls)
     v_of_rho     :      0.06s CPU      0.07s WALL (       9 calls)
     newd         :      0.07s CPU      0.07s WALL (       9 calls)
     PAW_pot      :      0.88s CPU      0.88s WALL (       9 calls)
     mix_rho      :      0.03s CPU      0.03s WALL (       9 calls)

     Called by c_bands:
     init_us_2    :      3.66s CPU      3.75s WALL (    3612 calls)
     cegterg      :    176.12s CPU    180.40s WALL (    1548 calls)

     Called by sum_band:
     sum_band:bec :      0.27s CPU      0.28s WALL (    1548 calls)
     addusdens    :      0.04s CPU      0.05s WALL (       9 calls)

     Called by *egterg:
     h_psi        :    117.10s CPU    120.88s WALL (    6357 calls)
     s_psi        :      9.74s CPU      9.81s WALL (    6357 calls)
     g_psi        :      0.43s CPU      0.43s WALL (    4637 calls)
     cdiaghg      :     39.22s CPU     39.38s WALL (    6013 calls)

     Called by h_psi:
     h_psi:pot    :    116.48s CPU    120.25s WALL (    6357 calls)
     h_psi:calbec :     10.98s CPU     11.75s WALL (    6357 calls)
     vloc_psi     :     95.32s CPU     98.24s WALL (    6357 calls)
     add_vuspsi   :     10.11s CPU     10.19s WALL (    6357 calls)

     General routines
     calbec       :     17.16s CPU     18.33s WALL (    8765 calls)
     fft          :      0.13s CPU      0.22s WALL (     142 calls)
     ffts         :      0.01s CPU      0.01s WALL (      18 calls)
     fftw         :    103.96s CPU    107.17s WALL (  603276 calls)
     interpolate  :      0.01s CPU      0.01s WALL (       9 calls)
 
     Parallel routines
     fft_scatt_xy :     10.14s CPU     10.45s WALL (  603436 calls)
     fft_scatt_yz :     53.28s CPU     54.96s WALL (  603436 calls)
 
     PWSCF        :  3m58.70s CPU     4m21.89s WALL

 
   This run was terminated on:   1:49:59  12Mar2020            

=------------------------------------------------------------------------------=
   JOB DONE.
=------------------------------------------------------------------------------=
