
     Program PWSCF v.6.3 starts on 12Mar2020 at  1:17:53 

     This program is part of the open-source Quantum ESPRESSO suite
     for quantum simulation of materials; please cite
         "P. Giannozzi et al., J. Phys.:Condens. Matter 21 395502 (2009);
         "P. Giannozzi et al., J. Phys.:Condens. Matter 29 465901 (2017);
          URL http://www.quantum-espresso.org", 
     in publications or presentations arising from this work. More details at
     http://www.quantum-espresso.org/quote

     Parallel version (MPI & OpenMP), running on      20 processor cores
     Number of MPI processes:                20
     Threads/MPI process:                     1

     MPI processes distributed on     1 nodes
     R & G space division:  proc/nbgrp/npool/nimage =      20
     Reading input from wd/kpoints/file_000148.in
Warning: card &IONS ignored
Warning: card ION_DYNAMICS = 'BFGS', ignored
Warning: card / ignored
Warning: card &CELL ignored
Warning: card CELL_DYNAMICS = 'BFGS', ignored
Warning: card CELL_FACTOR = 2.0, ignored
Warning: card PRESS = 0.0, ignored
Warning: card / ignored

     Current dimensions of program PWSCF are:
     Max number of different atomic species (ntypx) = 10
     Max number of k-points (npk) =  40000
     Max angular momentum in pseudopotentials (lmaxx) =  3
     Message from routine read_upf::
     Pseudo file /rds/homes/b/bxp912/pp/Al.pbe-nl-kjpaw_psl.1.0.0.UPF has been successfully fixed on the fly.
To avoid this message in the future you can permanently fix 
 your pseudo files following instructions given in: 
https://gitlab.com/QEF/q-e/blob/master/upftools/how_to_fix_upf.md
               file Al.pbe-nl-kjpaw_psl.1.0.0.UPF: wavefunction(s)  3S 3P renormalized

     Subspace diagonalization in iterative solution of the eigenvalue problem:
     a serial algorithm will be used

 
     Parallelization info
     --------------------
     sticks:   dense  smooth     PW     G-vecs:    dense   smooth      PW
     Min          96      96     27                 3225     3198     487
     Max          98      97     28                 3241     3201     490
     Sum        1941    1933    553                64589    63989    9771
 


     bravais-lattice index     =            0
     lattice parameter (alat)  =      15.2712  a.u.
     unit-cell volume          =    3561.3897 (a.u.)^3
     number of atoms/cell      =           32
     number of atomic types    =            1
     number of electrons       =        96.00
     number of Kohn-Sham states=           58
     kinetic-energy cutoff     =      26.0000  Ry
     charge density cutoff     =     105.0000  Ry
     convergence threshold     =      1.0E-06
     mixing beta               =       0.1000
     number of iterations used =           10  TF        mixing
     Exchange-correlation      = SLA PW PBX PBC ( 1  4  3  4 0 0)

     celldm(1)=  15.271200  celldm(2)=   0.000000  celldm(3)=   0.000000
     celldm(4)=   0.000000  celldm(5)=   0.000000  celldm(6)=   0.000000

     crystal axes: (cart. coord. in units of alat)
               a(1) = (   1.000000   0.000000   0.000000 )  
               a(2) = (   0.000000   1.000000   0.000000 )  
               a(3) = (   0.000000   0.000000   1.000000 )  

     reciprocal axes: (cart. coord. in units 2 pi/alat)
               b(1) = (  1.000000  0.000000  0.000000 )  
               b(2) = (  0.000000  1.000000  0.000000 )  
               b(3) = (  0.000000  0.000000  1.000000 )  


     PseudoPot. # 1 for Al read from file:
     /rds/homes/b/bxp912/pp/Al.pbe-nl-kjpaw_psl.1.0.0.UPF
     MD5 check sum: 339dbea23cf3ab9a065ad45c0f9085d7
     Pseudo is Projector augmented-wave + core cor, Zval =  3.0
     Generated using "atomic" code by A. Dal Corso v.5.1
     Shape of augmentation charge: PSQ
     Using radial grid of 1135 points,  4 beta functions with: 
                l(1) =   0
                l(2) =   0
                l(3) =   1
                l(4) =   1
     Q(r) pseudized with 0 coefficients 


     atomic species   valence    mass     pseudopotential
        Al             3.00    26.98200     Al( 1.00)

     No symmetry found



   Cartesian axes

     site n.     atom                  positions (alat units)
         1           Al  tau(   1) = (  -0.0000327   0.0000095   0.0000680  )
         2           Al  tau(   2) = (   0.2500796   0.2498100   0.0000703  )
         3           Al  tau(   3) = (   0.2499071   0.0000305   0.2502955  )
         4           Al  tau(   4) = (  -0.0000200   0.2502187   0.2501837  )
         5           Al  tau(   5) = (   0.0002558   0.0002521   0.4998810  )
         6           Al  tau(   6) = (   0.2501194   0.2498326   0.5000036  )
         7           Al  tau(   7) = (   0.2500278   0.0001539   0.7498880  )
         8           Al  tau(   8) = (   0.0000549   0.2501136   0.7502101  )
         9           Al  tau(   9) = (   0.0002375   0.5001078  -0.0000154  )
        10           Al  tau(  10) = (   0.2501396   0.7501762   0.0004054  )
        11           Al  tau(  11) = (   0.2501891   0.5001088   0.2502510  )
        12           Al  tau(  12) = (   0.0000383   0.7500455   0.2500253  )
        13           Al  tau(  13) = (   0.0001102   0.5001562   0.5000990  )
        14           Al  tau(  14) = (   0.2499640   0.7500632   0.4998706  )
        15           Al  tau(  15) = (   0.2503366   0.4997894   0.7496960  )
        16           Al  tau(  16) = (  -0.0003280   0.7497055   0.7499931  )
        17           Al  tau(  17) = (   0.5002037  -0.0001004  -0.0000387  )
        18           Al  tau(  18) = (   0.7499123   0.2500941  -0.0002332  )
        19           Al  tau(  19) = (   0.7496354  -0.0000959   0.2500771  )
        20           Al  tau(  20) = (   0.4999751   0.2499614   0.2498317  )
        21           Al  tau(  21) = (   0.4999211   0.0002929   0.4999726  )
        22           Al  tau(  22) = (   0.7500684   0.2496958   0.4999523  )
        23           Al  tau(  23) = (   0.7500357  -0.0000687   0.7500257  )
        24           Al  tau(  24) = (   0.5000114   0.2498864   0.7499948  )
        25           Al  tau(  25) = (   0.4998526   0.5001156  -0.0002192  )
        26           Al  tau(  26) = (   0.7497723   0.7500978   0.0002736  )
        27           Al  tau(  27) = (   0.7501007   0.4998018   0.2499462  )
        28           Al  tau(  28) = (   0.5000878   0.7497908   0.2502093  )
        29           Al  tau(  29) = (   0.4996761   0.5001027   0.5000404  )
        30           Al  tau(  30) = (   0.7501658   0.7499872   0.4998547  )
        31           Al  tau(  31) = (   0.7499472   0.5000095   0.7501393  )
        32           Al  tau(  32) = (   0.5000142   0.7499486   0.7499177  )

     number of k points=    63  Marzari-Vanderbilt smearing, width (Ry)=  0.0200
                       cart. coord. in units 2pi/alat
        k(    1) = (   0.1000000   0.1000000   0.1000000), wk =   0.0320000
        k(    2) = (   0.1000000   0.1000000   0.3000000), wk =   0.0320000
        k(    3) = (   0.1000000   0.1000000  -0.5000000), wk =   0.0320000
        k(    4) = (   0.1000000   0.3000000   0.3000000), wk =   0.0320000
        k(    5) = (   0.1000000   0.3000000  -0.5000000), wk =   0.0320000
        k(    6) = (   0.1000000  -0.5000000  -0.5000000), wk =   0.0320000
        k(    7) = (   0.3000000   0.3000000   0.3000000), wk =   0.0320000
        k(    8) = (   0.3000000   0.3000000  -0.5000000), wk =   0.0320000
        k(    9) = (   0.3000000  -0.5000000  -0.5000000), wk =   0.0320000
        k(   10) = (  -0.5000000  -0.5000000  -0.5000000), wk =   0.0160000
        k(   11) = (  -0.1000000  -0.1000000   0.1000000), wk =   0.0320000
        k(   12) = (  -0.1000000   0.1000000  -0.1000000), wk =   0.0320000
        k(   13) = (   0.1000000  -0.1000000  -0.1000000), wk =   0.0320000
        k(   14) = (  -0.1000000  -0.1000000   0.3000000), wk =   0.0320000
        k(   15) = (  -0.1000000   0.1000000  -0.3000000), wk =   0.0320000
        k(   16) = (   0.1000000  -0.1000000  -0.3000000), wk =   0.0320000
        k(   17) = (   0.3000000  -0.1000000   0.1000000), wk =   0.0320000
        k(   18) = (  -0.3000000  -0.1000000  -0.1000000), wk =   0.0320000
        k(   19) = (   0.3000000   0.1000000  -0.1000000), wk =   0.0320000
        k(   20) = (  -0.3000000   0.1000000   0.1000000), wk =   0.0320000
        k(   21) = (  -0.1000000   0.3000000   0.1000000), wk =   0.0320000
        k(   22) = (  -0.1000000  -0.3000000  -0.1000000), wk =   0.0320000
        k(   23) = (   0.1000000   0.3000000  -0.1000000), wk =   0.0320000
        k(   24) = (   0.1000000  -0.3000000   0.1000000), wk =   0.0320000
        k(   25) = (  -0.1000000   0.1000000   0.5000000), wk =   0.0320000
        k(   26) = (  -0.5000000  -0.1000000   0.1000000), wk =   0.0320000
        k(   27) = (   0.5000000  -0.1000000  -0.1000000), wk =   0.0320000
        k(   28) = (  -0.1000000  -0.5000000   0.1000000), wk =   0.0320000
        k(   29) = (  -0.1000000   0.5000000  -0.1000000), wk =   0.0320000
        k(   30) = (  -0.1000000  -0.3000000   0.3000000), wk =   0.0320000
        k(   31) = (  -0.1000000   0.3000000  -0.3000000), wk =   0.0320000
        k(   32) = (   0.1000000  -0.3000000  -0.3000000), wk =   0.0320000
        k(   33) = (   0.3000000   0.1000000  -0.3000000), wk =   0.0320000
        k(   34) = (  -0.3000000  -0.1000000  -0.3000000), wk =   0.0320000
        k(   35) = (   0.3000000  -0.1000000   0.3000000), wk =   0.0320000
        k(   36) = (  -0.3000000   0.1000000   0.3000000), wk =   0.0320000
        k(   37) = (   0.3000000  -0.3000000   0.1000000), wk =   0.0320000
        k(   38) = (  -0.3000000  -0.3000000  -0.1000000), wk =   0.0320000
        k(   39) = (   0.3000000   0.3000000  -0.1000000), wk =   0.0320000
        k(   40) = (  -0.3000000   0.3000000   0.1000000), wk =   0.0320000
        k(   41) = (  -0.1000000   0.3000000   0.5000000), wk =   0.0320000
        k(   42) = (   0.3000000   0.1000000   0.5000000), wk =   0.0320000
        k(   43) = (   0.3000000  -0.1000000  -0.5000000), wk =   0.0320000
        k(   44) = (  -0.5000000  -0.3000000   0.1000000), wk =   0.0320000
        k(   45) = (   0.5000000  -0.3000000  -0.1000000), wk =   0.0320000
        k(   46) = (  -0.1000000  -0.5000000   0.3000000), wk =   0.0320000
        k(   47) = (  -0.1000000   0.5000000  -0.3000000), wk =   0.0320000
        k(   48) = (   0.3000000  -0.5000000   0.1000000), wk =   0.0320000
        k(   49) = (   0.3000000   0.5000000  -0.1000000), wk =   0.0320000
        k(   50) = (  -0.5000000   0.1000000   0.3000000), wk =   0.0320000
        k(   51) = (   0.5000000  -0.1000000   0.3000000), wk =   0.0320000
        k(   52) = (  -0.5000000   0.1000000   0.5000000), wk =   0.0320000
        k(   53) = (  -0.5000000   0.5000000   0.1000000), wk =   0.0320000
        k(   54) = (  -0.3000000  -0.3000000   0.3000000), wk =   0.0320000
        k(   55) = (  -0.3000000   0.3000000  -0.3000000), wk =   0.0320000
        k(   56) = (   0.3000000  -0.3000000  -0.3000000), wk =   0.0320000
        k(   57) = (  -0.3000000   0.3000000   0.5000000), wk =   0.0320000
        k(   58) = (  -0.5000000  -0.3000000   0.3000000), wk =   0.0320000
        k(   59) = (   0.5000000  -0.3000000  -0.3000000), wk =   0.0320000
        k(   60) = (  -0.3000000  -0.5000000   0.3000000), wk =   0.0320000
        k(   61) = (  -0.3000000   0.5000000  -0.3000000), wk =   0.0320000
        k(   62) = (  -0.5000000   0.3000000   0.5000000), wk =   0.0320000
        k(   63) = (  -0.5000000   0.5000000   0.3000000), wk =   0.0320000

     Dense  grid:    64589 G-vectors     FFT dimensions: (  50,  50,  50)

     Smooth grid:    63989 G-vectors     FFT dimensions: (  50,  50,  50)

     Estimated max dynamical RAM per process >      33.64 MB

     Estimated total dynamical RAM >     672.79 MB

     Initial potential from superposition of free atoms

     starting charge   95.92671, renormalised to   96.00000
     Starting wfcs are  128 randomized atomic wfcs
     Checking if some PAW data can be deallocated... 

     total cpu time spent up to now is        6.1 secs

     Self-consistent Calculation

     iteration #  1     ecut=    26.00 Ry     beta= 0.10
     Davidson diagonalization with overlap
     ethr =  1.00E-02,  avg # of iterations =  3.0

     Threshold (ethr) on eigenvalues was too large:
     Diagonalizing with lowered threshold

     Davidson diagonalization with overlap
     ethr =  1.92E-04,  avg # of iterations =  3.7

     total cpu time spent up to now is       25.6 secs

     total energy              =   -1264.12982187 Ry
     Harris-Foulkes estimate   =   -1264.13614222 Ry
     estimated scf accuracy    <       0.18024396 Ry

     iteration #  2     ecut=    26.00 Ry     beta= 0.10
     Davidson diagonalization with overlap
     ethr =  1.88E-04,  avg # of iterations =  1.0

     total cpu time spent up to now is       31.7 secs

     total energy              =   -1264.08199208 Ry
     Harris-Foulkes estimate   =   -1264.13063666 Ry
     estimated scf accuracy    <       0.15638983 Ry

     iteration #  3     ecut=    26.00 Ry     beta= 0.10
     Davidson diagonalization with overlap
     ethr =  1.63E-04,  avg # of iterations =  1.0

     total cpu time spent up to now is       37.8 secs

     total energy              =   -1264.08485025 Ry
     Harris-Foulkes estimate   =   -1264.08500843 Ry
     estimated scf accuracy    <       0.00060766 Ry

     iteration #  4     ecut=    26.00 Ry     beta= 0.10
     Davidson diagonalization with overlap
     c_bands:  1 eigenvalues not converged
     ethr =  6.33E-07,  avg # of iterations =  4.9

     total cpu time spent up to now is       51.2 secs

     total energy              =   -1264.08548111 Ry
     Harris-Foulkes estimate   =   -1264.08563331 Ry
     estimated scf accuracy    <       0.00037942 Ry

     iteration #  5     ecut=    26.00 Ry     beta= 0.10
     Davidson diagonalization with overlap
     ethr =  3.95E-07,  avg # of iterations =  1.7

     total cpu time spent up to now is       57.7 secs

     total energy              =   -1264.08528065 Ry
     Harris-Foulkes estimate   =   -1264.08549324 Ry
     estimated scf accuracy    <       0.00024182 Ry

     iteration #  6     ecut=    26.00 Ry     beta= 0.10
     Davidson diagonalization with overlap
     ethr =  2.52E-07,  avg # of iterations =  2.0

     total cpu time spent up to now is       66.3 secs

     total energy              =   -1264.08534389 Ry
     Harris-Foulkes estimate   =   -1264.08534190 Ry
     estimated scf accuracy    <       0.00001052 Ry

     iteration #  7     ecut=    26.00 Ry     beta= 0.10
     Davidson diagonalization with overlap
     ethr =  1.10E-08,  avg # of iterations =  3.7

     total cpu time spent up to now is       74.7 secs

     total energy              =   -1264.08533747 Ry
     Harris-Foulkes estimate   =   -1264.08534483 Ry
     estimated scf accuracy    <       0.00000562 Ry

     iteration #  8     ecut=    26.00 Ry     beta= 0.10
     Davidson diagonalization with overlap
     ethr =  5.86E-09,  avg # of iterations =  2.1

     total cpu time spent up to now is       82.5 secs

     End of self-consistent calculation

          k = 0.1000 0.1000 0.1000 (  7986 PWs)   bands (ev):

    -3.1647  -1.3653  -1.3630  -1.3602  -0.4731  -0.4708  -0.4680   0.4144
     0.4167   0.4195   1.2951   1.2954   1.2981   1.2987   1.3000   1.3013
     2.1713   2.1735   2.1748   2.1766   3.0369   3.0377   3.0384   3.9327
     3.9334   3.9342   4.6179   4.6185   4.6191   4.7877   6.2949   6.2953
     6.2983   6.2989   6.3001   6.3013   6.8021   6.8027   6.8033   7.1399
     7.1404   7.1424   7.1437   7.1449   7.1454   7.9949   7.9973   8.0001
     8.4427   8.4433   8.4451   8.4460   8.4478   8.4493   8.8354   8.8360
     8.8371   8.8384

          k = 0.1000 0.1000 0.3000 (  7974 PWs)   bands (ev):

    -2.9835  -2.0808  -1.1844  -1.1833  -0.2946  -0.2937  -0.2922  -0.2898
     0.5910   0.5920   0.5931   0.5958   1.4721   1.4740   1.4761   2.3456
     2.3466   2.3475   2.3488   2.3512   3.1914   3.2097   3.2156   3.2167
     4.1057   4.7872   4.7877   4.9074   4.9085   4.9579   4.9586   5.6297
     5.6302   5.7470   5.7482   5.8151   6.4908   6.4919   6.6329   6.9734
     6.9740   7.3203   7.3213   7.3248   7.3261   7.4805   7.4814   7.7588
     7.7597   8.1644   8.1650   8.2334   8.2335   8.3267   8.5432   8.7163
     8.7170   9.4679

          k = 0.1000 0.1000-0.5000 (  7978 PWs)   bands (ev):

    -2.6231  -2.6204  -0.8285  -0.8278  -0.8259  -0.8243   0.0604   0.0612
     0.0630   0.0646   0.9453   0.9480   1.8168   1.8181   1.8230   1.8236
     1.8257   1.8265   2.6949   2.6977   3.5553   3.5565   3.5566   3.5577
     4.4149   4.4161   4.4161   4.4172   5.1233   5.1237   5.1260   5.1267
     5.2944   5.2957   6.1483   6.1489   6.1496   6.1506   6.8186   6.8192
     6.8212   6.8229   7.0005   7.0019   7.3085   7.3091   7.3112   7.3120
     7.6578   7.6583   7.6603   7.6620   9.0736   9.0743   9.0760   9.0777
     9.3500   9.3515

          k = 0.1000 0.3000 0.3000 (  7962 PWs)   bands (ev):

    -2.8026  -1.9025  -1.8994  -1.0058  -1.0044  -0.1169  -0.1152  -0.1124
     0.7662   0.7678   0.7684   0.7707   0.7734   1.6467   1.6476   1.6505
     2.5198   2.5230   3.3635   3.3647   3.3801   3.3813   3.3871   3.3900
     4.2230   4.2261   4.2487   4.2784   4.2796   4.9562   5.0667   5.0678
     5.7912   5.7946   5.9510   5.9541   5.9610   5.9622   5.9843   6.6527
     6.7670   6.7691   6.8004   6.8036   6.8373   7.1393   8.0693   8.0715
     8.3159   8.3195   8.4922   8.4939   8.7060   8.7074   8.9132   9.1691
     9.1710   9.3274

          k = 0.1000 0.3000-0.5000 (  7974 PWs)   bands (ev):

    -2.4426  -2.4399  -1.5433  -1.5406  -0.6497  -0.6470   0.2361   0.2393
     0.2412   0.2425   1.1181   1.1212   1.1227   1.1241   1.9919   1.9931
     2.8629   2.8642   2.8675   2.8702   3.7076   3.7103   3.7232   3.7256
     3.7278   3.7292   4.5756   4.5767   4.6183   4.6195   5.2914   5.2942
     5.4276   5.4287   5.4519   5.4545   5.4654   5.4668   6.1555   6.1583
     6.2905   6.2933   7.1684   7.1697   7.4144   7.4167   8.0165   8.0178
     8.0796   8.0807   8.4003   8.4029   8.6625   8.6654   9.0012   9.0037
     9.5474   9.5490

          k = 0.1000-0.5000-0.5000 (  7944 PWs)   bands (ev):

    -2.0832  -2.0821  -2.0797  -2.0783  -0.2947  -0.2936  -0.2913  -0.2898
     0.5910   0.5921   0.5944   0.5959   2.3377   2.3392   2.3398   2.3408
     2.3416   2.3438   2.3448   2.3455   4.0585   4.0601   4.0608   4.0619
     4.0624   4.0647   4.0657   4.0664   4.9592   4.9605   4.9611   4.9621
     4.9632   4.9651   4.9662   4.9668   5.6218   5.6230   5.6256   5.6271
     6.6146   6.6152   6.6165   6.6173   7.9083   7.9092   7.9111   7.9123
     8.3450   8.3456   8.3468   8.3476   9.1891   9.1897   9.1910   9.1918
     9.8221   9.8252

          k = 0.3000 0.3000 0.3000 (  7997 PWs)   bands (ev):

    -2.6218  -1.7238  -1.7215  -1.7187  -0.8290  -0.8267  -0.8239   0.0629
     0.9421   0.9444   0.9472   1.8199   1.8202   1.8229   1.8235   1.8247
     1.8261   2.6942   2.6949   2.6957   3.5359   3.5366   3.5374   4.3916
     4.3919   4.3947   4.3953   4.3966   4.3979   4.4070   4.4093   4.4122
     5.2800   5.2823   5.2853   5.2990   5.2998   5.3006   6.9593   6.9597
     6.9612   6.9627   6.9638   6.9644   7.8132   7.8137   7.8152   7.8166
     7.8177   7.8183   7.8543   8.8310   8.8322   8.8333   9.5346   9.5351
     9.5356   9.7490

          k = 0.3000 0.3000-0.5000 (  7950 PWs)   bands (ev):

    -2.2623  -2.2596  -1.3646  -1.3639  -1.3621  -1.3605  -0.4715  -0.4688
     1.2947   1.2954   1.2972   1.2988   2.1663   2.1676   2.1710   2.1717
     2.1738   2.1745   3.0360   3.0372   3.0373   3.0383   3.8792   3.8797
     3.8817   3.8827   3.8905   3.8916   4.7242   4.7249   4.7267   4.7283
     4.7943   4.7969   5.6428   5.6441   5.6442   5.6453   6.4866   6.4872
     6.4879   6.4889   7.3038   7.3044   7.3063   7.3080   8.1137   8.1144
     8.1149   8.1159   8.9859   8.9871   8.9874   8.9885   9.0278   9.0292
     9.2735   9.2743

          k = 0.3000-0.5000-0.5000 (  7960 PWs)   bands (ev):

    -1.9033  -1.9023  -1.8999  -1.8984  -1.0074  -1.0063  -1.0039  -1.0025
     1.6453   1.6464   1.6488   1.6502   2.5119   2.5135   2.5140   2.5151
     2.5159   2.5180   2.5191   2.5197   3.3786   3.3802   3.3808   3.3818
     3.3826   3.3848   3.3858   3.3864   4.2207   4.2218   4.2243   4.2258
     5.9720   5.9735   5.9741   5.9751   5.9761   5.9782   5.9793   5.9799
     6.8107   6.8113   6.8125   6.8133   7.6666   7.6671   7.6683   7.6691
     8.4714   8.4732   8.4739   8.4750   8.4759   8.4782   8.4793   8.4802
     9.5961   9.5986

          k =-0.5000-0.5000-0.5000 (  8024 PWs)   bands (ev):

    -1.5467  -1.5460  -1.5430  -1.5426  -1.5416  -1.5396  -1.5393  -1.5365
     2.8558   2.8561   2.8575   2.8581   2.8593   2.8603   2.8605   2.8615
     2.8619   2.8624   2.8627   2.8632   2.8637   2.8641   2.8647   2.8648
     2.8656   2.8666   2.8670   2.8674   2.8684   2.8698   2.8713   2.8733
     7.1492   7.1502   7.1509   7.1514   7.1527   7.1532   7.1538   7.1540
     7.1541   7.1548   7.1559   7.1565   7.1572   7.1574   7.1576   7.1584
     7.1588   7.1595   7.1598   7.1601   7.1610   7.1617   7.1635   7.1637
    11.3551  11.3570

          k =-0.1000-0.1000 0.1000 (  7986 PWs)   bands (ev):

    -3.1647  -1.3648  -1.3630  -1.3607  -0.4726  -0.4708  -0.4685   0.4149
     0.4167   0.4190   1.2942   1.2970   1.2974   1.2986   1.3000   1.3015
     2.1719   2.1736   2.1747   2.1761   3.0372   3.0377   3.0381   3.9330
     3.9334   3.9339   4.6181   4.6185   4.6189   4.7878   6.2939   6.2970
     6.2977   6.2984   6.3002   6.3016   6.8023   6.8027   6.8031   7.1399
     7.1417   7.1425   7.1432   7.1442   7.1454   7.9954   7.9972   7.9996
     8.4425   8.4437   8.4451   8.4464   8.4475   8.4490   8.8358   8.8360
     8.8376   8.8381

          k =-0.1000 0.1000-0.1000 (  7986 PWs)   bands (ev):

    -3.1647  -1.3653  -1.3628  -1.3604  -0.4731  -0.4706  -0.4682   0.4144
     0.4168   0.4193   1.2952   1.2957   1.2970   1.2981   1.3005   1.3022
     2.1714   2.1739   2.1746   2.1764   3.0369   3.0377   3.0385   3.9326
     3.9334   3.9343   4.6178   4.6185   4.6192   4.7877   6.2952   6.2957
     6.2968   6.2981   6.3007   6.3022   6.8020   6.8027   6.8034   7.1402
     7.1410   7.1417   7.1436   7.1448   7.1456   7.9950   7.9974   7.9999
     8.4425   8.4435   8.4449   8.4464   8.4478   8.4493   8.8348   8.8355
     8.8370   8.8384

          k = 0.1000-0.1000-0.1000 (  7986 PWs)   bands (ev):

    -3.1647  -1.3649  -1.3634  -1.3601  -0.4728  -0.4712  -0.4679   0.4147
     0.4163   0.4196   1.2949   1.2959   1.2974   1.2985   1.2998   1.3021
     2.1717   2.1732   2.1747   2.1767   3.0368   3.0377   3.0386   3.9325
     3.9334   3.9343   4.6178   4.6185   4.6192   4.7878   6.2948   6.2961
     6.2973   6.2985   6.2997   6.3024   6.8019   6.8027   6.8035   7.1398
     7.1413   7.1418   7.1437   7.1442   7.1460   7.9953   7.9968   8.0002
     8.4430   8.4433   8.4446   8.4462   8.4475   8.4497   8.8340   8.8362
     8.8372   8.8386

          k =-0.1000-0.1000 0.3000 (  7974 PWs)   bands (ev):

    -2.9835  -2.0808  -1.1844  -1.1833  -0.2944  -0.2937  -0.2916  -0.2905
     0.5906   0.5924   0.5936   0.5953   1.4721   1.4738   1.4763   2.3456
     2.3461   2.3479   2.3490   2.3513   3.1915   3.2095   3.2155   3.2170
     4.1057   4.7872   4.7877   4.9074   4.9086   4.9579   4.9586   5.6297
     5.6302   5.7470   5.7482   5.8151   6.4908   6.4919   6.6329   6.9734
     6.9740   7.3203   7.3211   7.3249   7.3263   7.4805   7.4814   7.7588
     7.7597   8.1644   8.1650   8.2334   8.2335   8.3267   8.5432   8.7163
     8.7170   9.4676

          k =-0.1000 0.1000-0.3000 (  7974 PWs)   bands (ev):

    -2.9835  -2.0808  -1.1848  -1.1829  -0.2949  -0.2924  -0.2922  -0.2908
     0.5902   0.5921   0.5941   0.5955   1.4725   1.4742   1.4755   2.3454
     2.3463   2.3477   2.3497   2.3508   3.1914   3.2094   3.2151   3.2176
     4.1057   4.7869   4.7880   4.9070   4.9090   4.9576   4.9590   5.6294
     5.6305   5.7466   5.7486   5.8151   6.4904   6.4923   6.6329   6.9731
     6.9743   7.3206   7.3216   7.3242   7.3262   7.4801   7.4818   7.7583
     7.7602   8.1641   8.1653   8.2334   8.2335   8.3267   8.5432   8.7160
     8.7173   9.4669

          k = 0.1000-0.1000-0.3000 (  7974 PWs)   bands (ev):

    -2.9835  -2.0808  -1.1848  -1.1829  -0.2946  -0.2944  -0.2919  -0.2893
     0.5911   0.5926   0.5935   0.5947   1.4718   1.4734   1.4770   2.3459
     2.3461   2.3477   2.3487   2.3514   3.1914   3.2098   3.2151   3.2171
     4.1057   4.7869   4.7880   4.9070   4.9090   4.9576   4.9590   5.6294
     5.6305   5.7466   5.7486   5.8151   6.4904   6.4923   6.6329   6.9731
     6.9743   7.3193   7.3215   7.3254   7.3264   7.4801   7.4818   7.7583
     7.7602   8.1641   8.1653   8.2334   8.2335   8.3267   8.5432   8.7160
     8.7173   9.4672

          k = 0.3000-0.1000 0.1000 (  7974 PWs)   bands (ev):

    -2.9835  -2.0808  -1.1849  -1.1828  -0.2940  -0.2934  -0.2929  -0.2900
     0.5894   0.5933   0.5941   0.5950   1.4728   1.4741   1.4754   2.3452
     2.3464   2.3475   2.3499   2.3507   3.1914   3.2090   3.2156   3.2173
     4.1057   4.7872   4.7877   4.9069   4.9091   4.9580   4.9586   5.6297
     5.6302   5.7465   5.7487   5.8151   6.4902   6.4924   6.6329   6.9735
     6.9740   7.3205   7.3218   7.3242   7.3261   7.4806   7.4813   7.7588
     7.7597   8.1640   8.1653   8.2335   8.2335   8.3267   8.5432   8.7159
     8.7173   9.4680

          k =-0.3000-0.1000-0.1000 (  7974 PWs)   bands (ev):

    -2.9835  -2.0808  -1.1854  -1.1823  -0.2950  -0.2932  -0.2925  -0.2896
     0.5894   0.5919   0.5945   0.5961   1.4729   1.4742   1.4752   2.3445
     2.3462   2.3487   2.3496   2.3509   3.1914   3.2089   3.2150   3.2181
     4.1057   4.7870   4.7879   4.9063   4.9096   4.9577   4.9589   5.6295
     5.6305   5.7460   5.7492   5.8151   6.4898   6.4929   6.6330   6.9732
     6.9742   7.3202   7.3222   7.3237   7.3265   7.4803   7.4817   7.7584
     7.7601   8.1637   8.1656   8.2334   8.2335   8.3267   8.5432   8.7156
     8.7176   9.4662

          k = 0.3000 0.1000-0.1000 (  7974 PWs)   bands (ev):

    -2.9835  -2.0808  -1.1849  -1.1828  -0.2944  -0.2933  -0.2921  -0.2905
     0.5901   0.5930   0.5937   0.5950   1.4727   1.4741   1.4754   2.3453
     2.3468   2.3479   2.3491   2.3506   3.1915   3.2093   3.2154   3.2173
     4.1057   4.7872   4.7877   4.9068   4.9091   4.9580   4.9586   5.6297
     5.6302   5.7465   5.7487   5.8151   6.4903   6.4924   6.6329   6.9735
     6.9740   7.3205   7.3216   7.3243   7.3261   7.4806   7.4813   7.7588
     7.7597   8.1640   8.1653   8.2334   8.2335   8.3267   8.5432   8.7159
     8.7173   9.4683

          k =-0.3000 0.1000 0.1000 (  7974 PWs)   bands (ev):

    -2.9835  -2.0808  -1.1854  -1.1823  -0.2947  -0.2939  -0.2923  -0.2894
     0.5903   0.5918   0.5936   0.5961   1.4726   1.4737   1.4759   2.3447
     2.3468   2.3483   2.3488   2.3513   3.1914   3.2095   3.2147   3.2179
     4.1057   4.7870   4.7879   4.9063   4.9096   4.9577   4.9589   5.6295
     5.6304   5.7460   5.7492   5.8151   6.4898   6.4929   6.6329   6.9732
     6.9742   7.3195   7.3222   7.3242   7.3265   7.4802   7.4817   7.7584
     7.7601   8.1637   8.1657   8.2334   8.2335   8.3267   8.5432   8.7156
     8.7176   9.4666

          k =-0.1000 0.3000 0.1000 (  7974 PWs)   bands (ev):

    -2.9835  -2.0808  -1.1855  -1.1822  -0.2954  -0.2932  -0.2932  -0.2885
     0.5903   0.5918   0.5943   0.5955   1.4718   1.4738   1.4766   2.3441
     2.3468   2.3484   2.3494   2.3510   3.1914   3.2096   3.2146   3.2178
     4.1057   4.7874   4.7875   4.9062   4.9098   4.9582   4.9583   5.6299
     5.6300   5.7458   5.7494   5.8151   6.4896   6.4931   6.6329   6.9737
     6.9738   7.3198   7.3208   7.3248   7.3271   7.4809   7.4810   7.7592
     7.7593   8.1637   8.1657   8.2334   8.2335   8.3267   8.5432   8.7156
     8.7177   9.4660

          k =-0.1000-0.3000-0.1000 (  7974 PWs)   bands (ev):

    -2.9835  -2.0808  -1.1859  -1.1819  -0.2956  -0.2939  -0.2926  -0.2882
     0.5898   0.5924   0.5941   0.5956   1.4718   1.4741   1.4764   2.3446
     2.3461   2.3483   2.3498   2.3510   3.1914   3.2094   3.2145   3.2181
     4.1057   4.7872   4.7877   4.9059   4.9101   4.9579   4.9586   5.6297
     5.6302   5.7455   5.7497   5.8151   6.4893   6.4934   6.6329   6.9734
     6.9740   7.3196   7.3215   7.3237   7.3277   7.4806   7.4813   7.7588
     7.7597   8.1635   8.1659   8.2334   8.2335   8.3267   8.5432   8.7154
     8.7179   9.4657

          k = 0.1000 0.3000-0.1000 (  7974 PWs)   bands (ev):

    -2.9835  -2.0808  -1.1855  -1.1822  -0.2954  -0.2934  -0.2915  -0.2900
     0.5901   0.5923   0.5937   0.5958   1.4726   1.4738   1.4758   2.3446
     2.3468   2.3482   2.3492   2.3510   3.1915   3.2092   3.2145   3.2182
     4.1057   4.7874   4.7875   4.9062   4.9098   4.9582   4.9583   5.6299
     5.6300   5.7458   5.7494   5.8151   6.4896   6.4930   6.6329   6.9737
     6.9738   7.3199   7.3218   7.3238   7.3269   7.4809   7.4810   7.7592
     7.7593   8.1637   8.1657   8.2334   8.2335   8.3267   8.5432   8.7156
     8.7177   9.4670

          k = 0.1000-0.3000 0.1000 (  7974 PWs)   bands (ev):

    -2.9835  -2.0808  -1.1859  -1.1819  -0.2961  -0.2934  -0.2914  -0.2894
     0.5895   0.5924   0.5938   0.5962   1.4723   1.4739   1.4761   2.3445
     2.3461   2.3482   2.3495   2.3515   3.1914   3.2092   3.2146   3.2182
     4.1057   4.7872   4.7877   4.9059   4.9101   4.9579   4.9586   5.6297
     5.6302   5.7455   5.7497   5.8151   6.4893   6.4934   6.6329   6.9734
     6.9740   7.3195   7.3220   7.3238   7.3273   7.4806   7.4814   7.7588
     7.7597   8.1635   8.1658   8.2334   8.2335   8.3267   8.5432   8.7154
     8.7178   9.4657

          k =-0.1000 0.1000 0.5000 (  7978 PWs)   bands (ev):

    -2.6231  -2.6204  -0.8290  -0.8272  -0.8263  -0.8240   0.0599   0.0618
     0.0626   0.0649   0.9453   0.9480   1.8166   1.8179   1.8229   1.8240
     1.8255   1.8269   2.6949   2.6977   3.5550   3.5562   3.5569   3.5582
     4.4145   4.4157   4.4165   4.4177   5.1229   5.1241   5.1258   5.1269
     5.2944   5.2957   6.1479   6.1491   6.1497   6.1508   6.8180   6.8199
     6.8208   6.8232   7.0005   7.0019   7.3081   7.3094   7.3110   7.3122
     7.6575   7.6587   7.6603   7.6618   9.0734   9.0745   9.0760   9.0776
     9.3497   9.3509

          k =-0.5000-0.1000 0.1000 (  7978 PWs)   bands (ev):

    -2.6233  -2.6203  -0.8297  -0.8270  -0.8258  -0.8241   0.0593   0.0620
     0.0632   0.0648   0.9452   0.9481   1.8167   1.8178   1.8231   1.8236
     1.8256   1.8269   2.6948   2.6978   3.5548   3.5561   3.5570   3.5583
     4.4143   4.4156   4.4165   4.4178   5.1233   5.1235   5.1259   5.1271
     5.2943   5.2958   6.1482   6.1489   6.1492   6.1510   6.8173   6.8201
     6.8214   6.8230   7.0005   7.0019   7.3084   7.3090   7.3110   7.3124
     7.6570   7.6588   7.6607   7.6618   9.0729   9.0746   9.0764   9.0776
     9.3500   9.3514

          k = 0.5000-0.1000-0.1000 (  7978 PWs)   bands (ev):

    -2.6233  -2.6203  -0.8300  -0.8266  -0.8261  -0.8238   0.0590   0.0623
     0.0628   0.0651   0.9452   0.9482   1.8168   1.8176   1.8226   1.8240
     1.8259   1.8267   2.6948   2.6978   3.5542   3.5557   3.5576   3.5587
     4.4137   4.4152   4.4171   4.4183   5.1229   5.1239   5.1260   5.1270
     5.2943   5.2958   6.1479   6.1491   6.1497   6.1507   6.8171   6.8205
     6.8209   6.8234   7.0005   7.0019   7.3081   7.3093   7.3111   7.3122
     7.6572   7.6587   7.6599   7.6625   9.0731   9.0745   9.0757   9.0783
     9.3500   9.3507

          k =-0.1000-0.5000 0.1000 (  7978 PWs)   bands (ev):

    -2.6221  -2.6214  -0.8287  -0.8282  -0.8257  -0.8239   0.0602   0.0607
     0.0632   0.0650   0.9463   0.9470   1.8170   1.8176   1.8242   1.8244
     1.8251   1.8255   2.6959   2.6966   3.5547   3.5549   3.5580   3.5586
     4.4143   4.4144   4.4175   4.4181   5.1245   5.1246   5.1253   5.1254
     5.2949   5.2952   6.1491   6.1492   6.1495   6.1496   6.8184   6.8189
     6.8214   6.8231   7.0010   7.0014   7.3098   7.3099   7.3105   7.3106
     7.6579   7.6592   7.6604   7.6610   9.0737   9.0749   9.0761   9.0767
     9.3508   9.3512

          k =-0.1000 0.5000-0.1000 (  7978 PWs)   bands (ev):

    -2.6221  -2.6214  -0.8290  -0.8284  -0.8251  -0.8240   0.0599   0.0606
     0.0638   0.0649   0.9463   0.9470   1.8169   1.8174   1.8243   1.8246
     1.8248   1.8257   2.6959   2.6966   3.5543   3.5547   3.5584   3.5588
     4.4138   4.4142   4.4180   4.4183   5.1246   5.1246   5.1248   5.1258
     5.2949   5.2952   6.1488   6.1491   6.1492   6.1503   6.8181   6.8188
     6.8219   6.8231   7.0010   7.0014   7.3098   7.3099   7.3100   7.3111
     7.6581   7.6587   7.6603   7.6613   9.0740   9.0745   9.0760   9.0770
     9.3506   9.3512

          k =-0.1000-0.3000 0.3000 (  7962 PWs)   bands (ev):

    -2.8026  -1.9020  -1.8999  -1.0058  -1.0044  -0.1177  -0.1142  -0.1126
     0.7666   0.7676   0.7684   0.7713   0.7727   1.6468   1.6479   1.6501
     2.5203   2.5225   3.3638   3.3644   3.3803   3.3808   3.3875   3.3898
     4.2235   4.2257   4.2487   4.2787   4.2792   4.9562   5.0670   5.0675
     5.7917   5.7941   5.9514   5.9535   5.9613   5.9621   5.9843   6.6527
     6.7674   6.7688   6.8008   6.8031   6.8373   7.1393   8.0696   8.0712
     8.3164   8.3189   8.4925   8.4937   8.7064   8.7071   8.9132   9.1696
     9.1705   9.3274

          k =-0.1000 0.3000-0.3000 (  7962 PWs)   bands (ev):

    -2.8026  -1.9020  -1.8999  -1.0052  -1.0049  -0.1173  -0.1143  -0.1130
     0.7668   0.7676   0.7691   0.7706   0.7725   1.6467   1.6479   1.6501
     2.5203   2.5225   3.3639   3.3645   3.3802   3.3810   3.3874   3.3896
     4.2235   4.2257   4.2487   4.2787   4.2792   4.9562   5.0670   5.0675
     5.7917   5.7941   5.9514   5.9537   5.9613   5.9620   5.9842   6.6527
     6.7674   6.7688   6.8008   6.8031   6.8373   7.1393   8.0696   8.0712
     8.3164   8.3189   8.4925   8.4937   8.7064   8.7071   8.9132   9.1696
     9.1705   9.3274

          k = 0.1000-0.3000-0.3000 (  7962 PWs)   bands (ev):

    -2.8026  -1.9025  -1.8994  -1.0061  -1.0041  -0.1178  -0.1148  -0.1119
     0.7662   0.7667   0.7689   0.7716   0.7732   1.6468   1.6481   1.6499
     2.5198   2.5230   3.3635   3.3647   3.3799   3.3811   3.3872   3.3903
     4.2230   4.2261   4.2488   4.2784   4.2795   4.9562   5.0667   5.0678
     5.7912   5.7946   5.9508   5.9540   5.9611   5.9625   5.9843   6.6527
     6.7671   6.7692   6.8003   6.8036   6.8373   7.1393   8.0693   8.0715
     8.3159   8.3195   8.4922   8.4939   8.7060   8.7074   8.9132   9.1691
     9.1710   9.3274

          k = 0.3000 0.1000-0.3000 (  7962 PWs)   bands (ev):

    -2.8026  -1.9027  -1.8993  -1.0058  -1.0044  -0.1170  -0.1148  -0.1127
     0.7655   0.7679   0.7687   0.7714   0.7732   1.6460   1.6476   1.6512
     2.5197   2.5231   3.3641   3.3641   3.3807   3.3809   3.3868   3.3900
     4.2228   4.2263   4.2486   4.2789   4.2792   4.9561   5.0672   5.0673
     5.7910   5.7948   5.9509   5.9544   5.9615   5.9616   5.9842   6.6527
     6.7669   6.7691   6.8003   6.8038   6.8373   7.1393   8.0692   8.0716
     8.3157   8.3196   8.4922   8.4940   8.7066   8.7067   8.9132   9.1700
     9.1701   9.3274

          k =-0.3000-0.1000-0.3000 (  7962 PWs)   bands (ev):

    -2.8026  -1.9030  -1.8990  -1.0058  -1.0044  -0.1179  -0.1143  -0.1123
     0.7653   0.7671   0.7698   0.7711   0.7733   1.6464   1.6477   1.6506
     2.5194   2.5234   3.3638   3.3644   3.3801   3.3811   3.3866   3.3906
     4.2225   4.2266   4.2487   4.2787   4.2793   4.9562   5.0669   5.0676
     5.7907   5.7951   5.9506   5.9545   5.9613   5.9620   5.9843   6.6527
     6.7668   6.7693   6.7999   6.8041   6.8373   7.1393   8.0689   8.0719
     8.3154   8.3200   8.4920   8.4941   8.7063   8.7072   8.9132   9.1695
     9.1706   9.3274

          k = 0.3000-0.1000 0.3000 (  7962 PWs)   bands (ev):

    -2.8026  -1.9030  -1.8990  -1.0061  -1.0041  -0.1176  -0.1143  -0.1126
     0.7657   0.7673   0.7688   0.7712   0.7737   1.6460   1.6479   1.6509
     2.5194   2.5234   3.3638   3.3644   3.3804   3.3811   3.3865   3.3904
     4.2226   4.2266   4.2486   4.2787   4.2793   4.9561   5.0670   5.0676
     5.7907   5.7951   5.9506   5.9547   5.9612   5.9619   5.9842   6.6527
     6.7668   6.7693   6.8000   6.8041   6.8373   7.1393   8.0689   8.0719
     8.3154   8.3200   8.4920   8.4941   8.7063   8.7071   8.9132   9.1695
     9.1706   9.3274

          k =-0.3000 0.1000 0.3000 (  7962 PWs)   bands (ev):

    -2.8026  -1.9027  -1.8993  -1.0052  -1.0050  -0.1173  -0.1153  -0.1119
     0.7658   0.7680   0.7695   0.7702   0.7732   1.6467   1.6476   1.6504
     2.5197   2.5231   3.3641   3.3642   3.3804   3.3807   3.3869   3.3903
     4.2229   4.2263   4.2487   4.2789   4.2790   4.9562   5.0672   5.0673
     5.7910   5.7948   5.9508   5.9542   5.9615   5.9619   5.9842   6.6527
     6.7670   6.7692   6.8002   6.8037   6.8373   7.1393   8.0692   8.0716
     8.3157   8.3196   8.4922   8.4940   8.7066   8.7068   8.9132   9.1700
     9.1701   9.3275

          k = 0.3000-0.3000 0.1000 (  7962 PWs)   bands (ev):

    -2.8026  -1.9019  -1.9000  -1.0058  -1.0044  -0.1160  -0.1149  -0.1136
     0.7666   0.7671   0.7698   0.7706   0.7725   1.6460   1.6473   1.6515
     2.5204   2.5224   3.3635   3.3648   3.3802   3.3816   3.3873   3.3893
     4.2236   4.2255   4.2486   4.2783   4.2798   4.9561   5.0666   5.0680
     5.7918   5.7940   5.9517   5.9537   5.9608   5.9621   5.9843   6.6527
     6.7674   6.7687   6.8010   6.8030   6.8373   7.1393   8.0697   8.0711
     8.3165   8.3188   8.4925   8.4936   8.7059   8.7075   8.9132   9.1689
     9.1712   9.3274

          k =-0.3000-0.3000-0.1000 (  7962 PWs)   bands (ev):

    -2.8026  -1.9015  -1.9004  -1.0052  -1.0050  -0.1165  -0.1150  -0.1130
     0.7669   0.7672   0.7692   0.7706   0.7727   1.6462   1.6476   1.6509
     2.5208   2.5220   3.3638   3.3645   3.3803   3.3810   3.3879   3.3890
     4.2240   4.2251   4.2487   4.2787   4.2793   4.9561   5.0669   5.0676
     5.7923   5.7935   5.9521   5.9532   5.9612   5.9619   5.9842   6.6527
     6.7677   6.7684   6.8014   6.8026   6.8373   7.1393   8.0700   8.0708
     8.3170   8.3183   8.4928   8.4934   8.7063   8.7071   8.9132   9.1695
     9.1706   9.3275

          k = 0.3000 0.3000-0.1000 (  7962 PWs)   bands (ev):

    -2.8026  -1.9015  -1.9004  -1.0061  -1.0041  -0.1162  -0.1147  -0.1137
     0.7667   0.7673   0.7692   0.7705   0.7729   1.6462   1.6478   1.6507
     2.5208   2.5220   3.3638   3.3644   3.3805   3.3811   3.3878   3.3890
     4.2240   4.2251   4.2487   4.2787   4.2793   4.9562   5.0669   5.0676
     5.7923   5.7935   5.9521   5.9532   5.9612   5.9618   5.9843   6.6527
     6.7677   6.7684   6.8014   6.8026   6.8373   7.1393   8.0700   8.0708
     8.3170   8.3183   8.4928   8.4934   8.7063   8.7071   8.9132   9.1695
     9.1706   9.3274

          k =-0.3000 0.3000 0.1000 (  7962 PWs)   bands (ev):

    -2.8026  -1.9019  -1.9000  -1.0058  -1.0044  -0.1165  -0.1156  -0.1124
     0.7661   0.7682   0.7695   0.7700   0.7728   1.6465   1.6481   1.6501
     2.5204   2.5224   3.3634   3.3648   3.3799   3.3813   3.3875   3.3896
     4.2236   4.2255   4.2487   4.2783   4.2796   4.9562   5.0666   5.0679
     5.7918   5.7940   5.9516   5.9535   5.9610   5.9623   5.9843   6.6527
     6.7675   6.7688   6.8010   6.8030   6.8373   7.1393   8.0697   8.0711
     8.3166   8.3188   8.4925   8.4936   8.7059   8.7075   8.9132   9.1689
     9.1712   9.3275

          k =-0.1000 0.3000 0.5000 (  7974 PWs)   bands (ev):

    -2.4426  -2.4399  -1.5433  -1.5406  -0.6497  -0.6470   0.2364   0.2394
     0.2405   0.2428   1.1188   1.1206   1.1225   1.1241   1.9919   1.9931
     2.8631   2.8639   2.8677   2.8701   3.7076   3.7104   3.7233   3.7260
     3.7276   3.7288   4.5756   4.5767   4.6183   4.6195   5.2914   5.2943
     5.4276   5.4287   5.4520   5.4546   5.4653   5.4666   6.1555   6.1583
     6.2905   6.2933   7.1684   7.1697   7.4144   7.4167   8.0165   8.0178
     8.0796   8.0807   8.4003   8.4029   8.6625   8.6654   9.0012   9.0037
     9.5474   9.5490

          k = 0.3000 0.1000 0.5000 (  7974 PWs)   bands (ev):

    -2.4426  -2.4399  -1.5433  -1.5406  -0.6497  -0.6470   0.2374   0.2387
     0.2409   0.2420   1.1179   1.1210   1.1224   1.1247   1.9919   1.9931
     2.8631   2.8644   2.8673   2.8700   3.7076   3.7104   3.7231   3.7259
     3.7277   3.7290   4.5757   4.5768   4.6182   4.6195   5.2914   5.2942
     5.4275   5.4286   5.4520   5.4546   5.4655   5.4668   6.1555   6.1583
     6.2905   6.2933   7.1683   7.1697   7.4144   7.4167   8.0165   8.0178
     8.0796   8.0807   8.4003   8.4029   8.6625   8.6654   9.0011   9.0037
     9.5474   9.5490

          k = 0.3000-0.1000-0.5000 (  7974 PWs)   bands (ev):

    -2.4426  -2.4399  -1.5433  -1.5406  -0.6497  -0.6470   0.2365   0.2396
     0.2410   0.2419   1.1177   1.1209   1.1230   1.1246   1.9919   1.9931
     2.8629   2.8640   2.8675   2.8703   3.7076   3.7103   3.7232   3.7256
     3.7280   3.7290   4.5757   4.5767   4.6182   4.6195   5.2914   5.2942
     5.4275   5.4286   5.4519   5.4546   5.4655   5.4667   6.1556   6.1583
     6.2905   6.2933   7.1683   7.1697   7.4144   7.4167   8.0165   8.0178
     8.0796   8.0807   8.4003   8.4029   8.6625   8.6654   9.0012   9.0037
     9.5474   9.5490

          k =-0.5000-0.3000 0.1000 (  7974 PWs)   bands (ev):

    -2.4427  -2.4398  -1.5434  -1.5405  -0.6498  -0.6468   0.2378   0.2388
     0.2407   0.2418   1.1176   1.1206   1.1226   1.1253   1.9919   1.9932
     2.8627   2.8642   2.8674   2.8704   3.7074   3.7104   3.7232   3.7261
     3.7276   3.7289   4.5756   4.5768   4.6182   4.6195   5.2913   5.2944
     5.4274   5.4286   5.4519   5.4548   5.4653   5.4668   6.1554   6.1584
     6.2904   6.2934   7.1683   7.1697   7.4143   7.4168   8.0164   8.0179
     8.0796   8.0807   8.4002   8.4030   8.6624   8.6655   9.0010   9.0038
     9.5473   9.5491

          k = 0.5000-0.3000-0.1000 (  7974 PWs)   bands (ev):

    -2.4427  -2.4398  -1.5434  -1.5405  -0.6498  -0.6468   0.2373   0.2386
     0.2396   0.2435   1.1187   1.1207   1.1219   1.1247   1.9919   1.9932
     2.8630   2.8643   2.8673   2.8702   3.7075   3.7105   3.7231   3.7260
     3.7275   3.7291   4.5756   4.5767   4.6182   4.6196   5.2913   5.2944
     5.4275   5.4287   5.4519   5.4547   5.4653   5.4668   6.1554   6.1584
     6.2904   6.2934   7.1683   7.1697   7.4143   7.4168   8.0164   8.0179
     8.0796   8.0808   8.4002   8.4030   8.6624   8.6655   9.0010   9.0038
     9.5473   9.5491

          k =-0.1000-0.5000 0.3000 (  7974 PWs)   bands (ev):

    -2.4416  -2.4409  -1.5423  -1.5416  -0.6487  -0.6480   0.2374   0.2384
     0.2407   0.2427   1.1199   1.1203   1.1223   1.1236   1.9923   1.9927
     2.8633   2.8637   2.8686   2.8691   3.7086   3.7094   3.7240   3.7249
     3.7280   3.7288   4.5760   4.5763   4.6187   4.6191   5.2924   5.2932
     5.4280   5.4283   5.4529   5.4536   5.4658   5.4663   6.1566   6.1573
     6.2916   6.2923   7.1688   7.1692   7.4153   7.4159   8.0169   8.0173
     8.0800   8.0803   8.4013   8.4020   8.6636   8.6643   9.0021   9.0028
     9.5480   9.5485

          k =-0.1000 0.5000-0.3000 (  7974 PWs)   bands (ev):

    -2.4416  -2.4409  -1.5423  -1.5416  -0.6487  -0.6480   0.2384   0.2392
     0.2404   0.2411   1.1195   1.1206   1.1227   1.1232   1.9923   1.9927
     2.8635   2.8639   2.8683   2.8690   3.7086   3.7094   3.7243   3.7248
     3.7281   3.7284   4.5761   4.5764   4.6187   4.6190   5.2925   5.2932
     5.4279   5.4283   5.4530   5.4536   5.4658   5.4662   6.1566   6.1573
     6.2916   6.2923   7.1688   7.1692   7.4152   7.4159   8.0169   8.0173
     8.0800   8.0803   8.4013   8.4020   8.6636   8.6643   9.0021   9.0028
     9.5480   9.5485

          k = 0.3000-0.5000 0.1000 (  7974 PWs)   bands (ev):

    -2.4416  -2.4409  -1.5423  -1.5416  -0.6487  -0.6480   0.2384   0.2390
     0.2401   0.2416   1.1190   1.1198   1.1227   1.1246   1.9923   1.9927
     2.8633   2.8638   2.8685   2.8692   3.7086   3.7093   3.7239   3.7250
     3.7281   3.7287   4.5761   4.5764   4.6187   4.6190   5.2924   5.2932
     5.4279   5.4282   5.4529   5.4537   5.4659   5.4663   6.1566   6.1573
     6.2916   6.2923   7.1688   7.1692   7.4153   7.4159   8.0169   8.0173
     8.0800   8.0803   8.4013   8.4020   8.6636   8.6643   9.0021   9.0028
     9.5480   9.5484

          k = 0.3000 0.5000-0.1000 (  7974 PWs)   bands (ev):

    -2.4416  -2.4409  -1.5423  -1.5416  -0.6487  -0.6480   0.2380   0.2392
     0.2407   0.2411   1.1198   1.1206   1.1225   1.1232   1.9923   1.9927
     2.8634   2.8638   2.8683   2.8691   3.7086   3.7093   3.7244   3.7250
     3.7280   3.7283   4.5760   4.5763   4.6187   4.6190   5.2925   5.2932
     5.4280   5.4283   5.4530   5.4537   5.4658   5.4662   6.1566   6.1573
     6.2916   6.2923   7.1688   7.1692   7.4153   7.4159   8.0169   8.0173
     8.0800   8.0803   8.4013   8.4020   8.6636   8.6643   9.0021   9.0027
     9.5480   9.5485

          k =-0.5000 0.1000 0.3000 (  7974 PWs)   bands (ev):

    -2.4427  -2.4398  -1.5434  -1.5405  -0.6498  -0.6469   0.2360   0.2390
     0.2407   0.2433   1.1190   1.1210   1.1220   1.1240   1.9919   1.9932
     2.8630   2.8643   2.8673   2.8701   3.7075   3.7105   3.7230   3.7257
     3.7278   3.7293   4.5755   4.5767   4.6182   4.6196   5.2913   5.2944
     5.4275   5.4287   5.4518   5.4546   5.4654   5.4668   6.1554   6.1584
     6.2904   6.2934   7.1683   7.1697   7.4143   7.4168   8.0164   8.0179
     8.0796   8.0808   8.4002   8.4030   8.6623   8.6655   9.0011   9.0038
     9.5473   9.5491

          k = 0.5000-0.1000 0.3000 (  7974 PWs)   bands (ev):

    -2.4427  -2.4398  -1.5434  -1.5405  -0.6498  -0.6469   0.2373   0.2388
     0.2402   0.2427   1.1187   1.1204   1.1215   1.1255   1.9919   1.9932
     2.8630   2.8641   2.8674   2.8703   3.7075   3.7105   3.7231   3.7261
     3.7275   3.7290   4.5756   4.5768   4.6182   4.6196   5.2913   5.2943
     5.4275   5.4286   5.4519   5.4547   5.4653   5.4668   6.1554   6.1584
     6.2904   6.2934   7.1683   7.1697   7.4143   7.4168   8.0164   8.0179
     8.0796   8.0808   8.4002   8.4030   8.6624   8.6655   9.0010   9.0038
     9.5473   9.5491

          k =-0.5000 0.1000 0.5000 (  7944 PWs)   bands (ev):

    -2.0846  -2.0817  -2.0797  -2.0772  -0.2962  -0.2932  -0.2912  -0.2888
     0.5895   0.5924   0.5945   0.5970   2.3373   2.3380   2.3396   2.3419
     2.3428   2.3431   2.3443   2.3464   4.0582   4.0589   4.0605   4.0627
     4.0638   4.0639   4.0653   4.0672   4.9586   4.9595   4.9608   4.9632
     4.9640   4.9647   4.9657   4.9677   5.6203   5.6234   5.6257   5.6282
     6.6140   6.6151   6.6168   6.6177   7.9071   7.9097   7.9110   7.9132
     8.3443   8.3458   8.3468   8.3481   9.1884   9.1899   9.1910   9.1922
     9.8218   9.8256

          k =-0.5000 0.5000 0.1000 (  7944 PWs)   bands (ev):

    -2.0831  -2.0819  -2.0793  -2.0791  -0.2946  -0.2934  -0.2908  -0.2906
     0.5911   0.5923   0.5949   0.5951   2.3378   2.3392   2.3398   2.3413
     2.3420   2.3436   2.3445   2.3451   4.0587   4.0601   4.0606   4.0622
     4.0628   4.0644   4.0656   4.0660   4.9593   4.9605   4.9613   4.9625
     4.9634   4.9650   4.9656   4.9664   5.6220   5.6233   5.6260   5.6262
     6.6148   6.6154   6.6166   6.6167   7.9083   7.9093   7.9115   7.9118
     8.3450   8.3457   8.3470   8.3472   9.1892   9.1898   9.1912   9.1913
     9.8221   9.8253

          k =-0.3000-0.3000 0.3000 (  7997 PWs)   bands (ev):

    -2.6218  -1.7233  -1.7216  -1.7192  -0.8285  -0.8267  -0.8244   0.0629
     0.9426   0.9444   0.9467   1.8189   1.8218   1.8221   1.8234   1.8248
     1.8263   2.6945   2.6949   2.6954   3.5362   3.5367   3.5371   4.3906
     4.3936   4.3940   4.3952   4.3966   4.3982   4.4075   4.4093   4.4117
     5.2805   5.2823   5.2848   5.2993   5.2998   5.3003   6.9593   6.9607
     6.9614   6.9623   6.9631   6.9641   7.8134   7.8146   7.8155   7.8162
     7.8169   7.8181   7.8543   8.8315   8.8322   8.8329   9.5347   9.5351
     9.5354   9.7488

          k =-0.3000 0.3000-0.3000 (  7997 PWs)   bands (ev):

    -2.6218  -1.7238  -1.7214  -1.7189  -0.8290  -0.8265  -0.8241   0.0629
     0.9421   0.9445   0.9470   1.8199   1.8205   1.8217   1.8229   1.8253
     1.8269   2.6941   2.6949   2.6958   3.5358   3.5366   3.5375   4.3917
     4.3923   4.3935   4.3947   4.3972   4.3988   4.4070   4.4095   4.4120
     5.2800   5.2825   5.2851   5.2989   5.2998   5.3006   6.9593   6.9602
     6.9608   6.9628   6.9635   6.9644   7.8133   7.8141   7.8148   7.8168
     7.8174   7.8183   7.8543   8.8309   8.8322   8.8334   9.5345   9.5351
     9.5357   9.7485

          k = 0.3000-0.3000-0.3000 (  7997 PWs)   bands (ev):

    -2.6218  -1.7235  -1.7220  -1.7186  -0.8287  -0.8271  -0.8238   0.0629
     0.9424   0.9440   0.9473   1.8197   1.8207   1.8222   1.8232   1.8246
     1.8269   2.6940   2.6949   2.6959   3.5358   3.5367   3.5375   4.3914
     4.3925   4.3940   4.3951   4.3964   4.3988   4.4073   4.4089   4.4123
     5.2803   5.2819   5.2853   5.2988   5.2998   5.3007   6.9590   6.9604
     6.9609   6.9628   6.9632   6.9647   7.8129   7.8144   7.8150   7.8168
     7.8171   7.8186   7.8543   8.8308   8.8322   8.8335   9.5344   9.5351
     9.5357   9.7478

          k =-0.3000 0.3000 0.5000 (  7950 PWs)   bands (ev):

    -2.2623  -2.2596  -1.3652  -1.3633  -1.3625  -1.3601  -0.4715  -0.4688
     1.2941   1.2960   1.2968   1.2992   2.1660   2.1674   2.1710   2.1721
     2.1736   2.1749   3.0356   3.0368   3.0375   3.0388   3.8786   3.8801
     3.8815   3.8828   3.8907   3.8917   4.7236   4.7255   4.7263   4.7287
     4.7943   4.7969   5.6425   5.6437   5.6445   5.6457   6.4862   6.4874
     6.4880   6.4891   7.3037   7.3047   7.3064   7.3078   8.1132   8.1144
     8.1151   8.1163   8.9855   8.9869   8.9875   8.9890   9.0278   9.0292
     9.2731   9.2748

          k =-0.5000-0.3000 0.3000 (  7950 PWs)   bands (ev):

    -2.2624  -2.2595  -1.3658  -1.3631  -1.3619  -1.3603  -0.4716  -0.4686
     1.2935   1.2962   1.2974   1.2990   2.1662   2.1672   2.1711   2.1717
     2.1737   2.1749   3.0354   3.0368   3.0376   3.0389   3.8791   3.8795
     3.8815   3.8831   3.8905   3.8918   4.7230   4.7257   4.7269   4.7286
     4.7942   4.7970   5.6423   5.6436   5.6445   5.6459   6.4865   6.4872
     6.4875   6.4893   7.3032   7.3048   7.3068   7.3077   8.1139   8.1142
     8.1147   8.1163   8.9852   8.9869   8.9876   8.9892   9.0277   9.0293
     9.2741   9.2757

          k = 0.5000-0.3000-0.3000 (  7950 PWs)   bands (ev):

    -2.2624  -2.2595  -1.3661  -1.3627  -1.3623  -1.3600  -0.4716  -0.4687
     1.2932   1.2966   1.2970   1.2993   2.1664   2.1671   2.1706   2.1721
     2.1740   2.1748   3.0348   3.0363   3.0382   3.0393   3.8787   3.8798
     3.8816   3.8829   3.8904   3.8919   4.7227   4.7261   4.7265   4.7289
     4.7942   4.7970   5.6417   5.6432   5.6451   5.6464   6.4862   6.4874
     6.4880   6.4890   7.3034   7.3046   7.3060   7.3085   8.1132   8.1145
     8.1150   8.1162   8.9846   8.9865   8.9882   8.9896   9.0278   9.0293
     9.2742   9.2756

          k =-0.3000-0.5000 0.3000 (  7950 PWs)   bands (ev):

    -2.2613  -2.2606  -1.3648  -1.3643  -1.3618  -1.3601  -0.4705  -0.4698
     1.2945   1.2950   1.2975   1.2992   2.1664   2.1671   2.1722   2.1724
     2.1731   2.1736   3.0354   3.0355   3.0386   3.0392   3.8805   3.8805
     3.8809   3.8812   3.8910   3.8913   4.7240   4.7244   4.7270   4.7287
     4.7953   4.7959   5.6422   5.6424   5.6457   5.6461   6.4874   6.4875
     6.4878   6.4879   7.3039   7.3053   7.3064   7.3069   8.1145   8.1146
     8.1149   8.1150   8.9853   8.9855   8.9887   8.9894   9.0283   9.0287
     9.2742   9.2749

          k =-0.3000 0.5000-0.3000 (  7950 PWs)   bands (ev):

    -2.2613  -2.2606  -1.3651  -1.3645  -1.3613  -1.3602  -0.4705  -0.4698
     1.2942   1.2948   1.2980   1.2991   2.1663   2.1669   2.1723   2.1727
     2.1730   2.1737   3.0349   3.0353   3.0390   3.0394   3.8802   3.8804
     3.8806   3.8818   3.8911   3.8913   4.7237   4.7243   4.7275   4.7286
     4.7952   4.7959   5.6418   5.6422   5.6460   5.6464   6.4870   6.4874
     6.4875   6.4886   7.3043   7.3049   7.3062   7.3072   8.1142   8.1144
     8.1147   8.1156   8.9849   8.9853   8.9892   8.9896   9.0283   9.0287
     9.2743   9.2747

          k =-0.5000 0.3000 0.5000 (  7960 PWs)   bands (ev):

    -1.9048  -1.9019  -1.8999  -1.8974  -1.0089  -1.0059  -1.0039  -1.0014
     1.6438   1.6468   1.6488   1.6513   2.5116   2.5122   2.5138   2.5161
     2.5170   2.5173   2.5185   2.5206   3.3783   3.3789   3.3805   3.3828
     3.3838   3.3840   3.3853   3.3873   4.2192   4.2222   4.2244   4.2269
     5.9715   5.9723   5.9738   5.9762   5.9771   5.9776   5.9787   5.9809
     6.8101   6.8115   6.8126   6.8137   7.6658   7.6673   7.6684   7.6696
     8.4712   8.4720   8.4735   8.4761   8.4770   8.4775   8.4788   8.4811
     9.5952   9.5992

          k =-0.5000 0.5000 0.3000 (  7960 PWs)   bands (ev):

    -1.9032  -1.9020  -1.8995  -1.8992  -1.0073  -1.0061  -1.0035  -1.0033
     1.6454   1.6466   1.6492   1.6495   2.5121   2.5134   2.5140   2.5155
     2.5162   2.5179   2.5188   2.5194   3.3788   3.3801   3.3807   3.3822
     3.3829   3.3846   3.3855   3.3861   4.2208   4.2221   4.2247   4.2250
     5.9721   5.9734   5.9742   5.9755   5.9764   5.9781   5.9789   5.9796
     6.8108   6.8115   6.8127   6.8128   7.6666   7.6673   7.6686   7.6687
     8.4717   8.4732   8.4738   8.4754   8.4762   8.4782   8.4790   8.4797
     9.5969   9.5989

     the Fermi energy is     7.9719 ev

!    total energy              =   -1264.08533852 Ry
     Harris-Foulkes estimate   =   -1264.08533816 Ry
     estimated scf accuracy    <       0.00000060 Ry

     total all-electron energy =    -15540.654361 Ry

     The total energy is the sum of the following terms:

     one-electron contribution =     101.24823436 Ry
     hartree contribution      =       0.19444559 Ry
     xc contribution           =     -82.91070640 Ry
     ewald contribution        =    -172.93188273 Ry
     one-center paw contrib.   =   -1109.68091687 Ry
     smearing contrib. (-TS)   =      -0.00451248 Ry

     convergence has been achieved in   8 iterations

     Forces acting on atoms (cartesian axes, Ry/au):

     atom    1 type  1   force =    -0.00004774   -0.00000452    0.00001563
     atom    2 type  1   force =    -0.00010701    0.00023409    0.00006976
     atom    3 type  1   force =     0.00023828    0.00000557   -0.00052129
     atom    4 type  1   force =     0.00000799   -0.00022695   -0.00036391
     atom    5 type  1   force =    -0.00045591   -0.00036082    0.00033465
     atom    6 type  1   force =    -0.00019623    0.00039060   -0.00003714
     atom    7 type  1   force =    -0.00019490   -0.00052760    0.00034061
     atom    8 type  1   force =    -0.00002310   -0.00006114   -0.00028687
     atom    9 type  1   force =    -0.00003214   -0.00002088    0.00008735
     atom   10 type  1   force =    -0.00020965   -0.00011299   -0.00070061
     atom   11 type  1   force =    -0.00028800   -0.00029298   -0.00038417
     atom   12 type  1   force =    -0.00017888   -0.00000541   -0.00004525
     atom   13 type  1   force =    -0.00015463   -0.00033457   -0.00004791
     atom   14 type  1   force =    -0.00004380    0.00013370    0.00045641
     atom   15 type  1   force =    -0.00053698    0.00038293    0.00054791
     atom   16 type  1   force =     0.00066592    0.00051647    0.00019513
     atom   17 type  1   force =    -0.00037388    0.00008343    0.00005096
     atom   18 type  1   force =     0.00021142   -0.00012053    0.00039108
     atom   19 type  1   force =     0.00059654    0.00022301   -0.00011825
     atom   20 type  1   force =     0.00007430    0.00021672    0.00006751
     atom   21 type  1   force =     0.00017887   -0.00057061    0.00010884
     atom   22 type  1   force =    -0.00007669    0.00061700    0.00021103
     atom   23 type  1   force =     0.00013145   -0.00007192   -0.00013583
     atom   24 type  1   force =     0.00013505    0.00009500   -0.00000753
     atom   25 type  1   force =     0.00009052   -0.00016621    0.00031248
     atom   26 type  1   force =     0.00034422   -0.00025160   -0.00025856
     atom   27 type  1   force =    -0.00016623    0.00011424    0.00009185
     atom   28 type  1   force =    -0.00009629    0.00025561   -0.00010610
     atom   29 type  1   force =     0.00086559   -0.00033980   -0.00009708
     atom   30 type  1   force =    -0.00024164    0.00004588    0.00020081
     atom   31 type  1   force =    -0.00004318   -0.00010268   -0.00034379
     atom   32 type  1   force =    -0.00007327    0.00025697   -0.00002775

     Total force =     0.002812     Total SCF correction =     0.000423
     SCF correction compared to forces is large: reduce conv_thr to get better values


     Computing stress (Cartesian axis) and pressure

          total   stress  (Ry/bohr**3)                   (kbar)     P=   -2.55
  -0.00001735   0.00000000  -0.00000000         -2.55      0.00     -0.00
   0.00000000  -0.00001735  -0.00000000          0.00     -2.55     -0.00
  -0.00000000  -0.00000000  -0.00001735         -0.00     -0.00     -2.55


     Writing output data file fe_scf_fcc_2.save/
 
     init_run     :      5.11s CPU      5.37s WALL (       1 calls)
     electrons    :     74.46s CPU     76.36s WALL (       1 calls)
     forces       :      1.08s CPU      1.13s WALL (       1 calls)
     stress       :      3.49s CPU      3.51s WALL (       1 calls)

     Called by init_run:
     wfcinit      :      4.87s CPU      5.04s WALL (       1 calls)
     potinit      :      0.11s CPU      0.12s WALL (       1 calls)
     hinit0       :      0.11s CPU      0.19s WALL (       1 calls)

     Called by electrons:
     c_bands      :     65.09s CPU     66.68s WALL (       9 calls)
     sum_band     :      8.45s CPU      8.72s WALL (       9 calls)
     v_of_rho     :      0.06s CPU      0.07s WALL (       9 calls)
     newd         :      0.05s CPU      0.06s WALL (       9 calls)
     PAW_pot      :      0.87s CPU      0.88s WALL (       9 calls)
     mix_rho      :      0.02s CPU      0.02s WALL (       9 calls)

     Called by c_bands:
     init_us_2    :      1.33s CPU      1.37s WALL (    1323 calls)
     cegterg      :     61.57s CPU     63.11s WALL (     567 calls)

     Called by sum_band:
     sum_band:bec :      0.10s CPU      0.10s WALL (     567 calls)
     addusdens    :      0.04s CPU      0.05s WALL (       9 calls)

     Called by *egterg:
     h_psi        :     41.73s CPU     43.11s WALL (    2092 calls)
     s_psi        :      3.51s CPU      3.53s WALL (    2092 calls)
     g_psi        :      0.15s CPU      0.15s WALL (    1462 calls)
     cdiaghg      :     12.75s CPU     12.80s WALL (    1966 calls)

     Called by h_psi:
     h_psi:pot    :     41.52s CPU     42.89s WALL (    2092 calls)
     h_psi:calbec :      3.91s CPU      4.18s WALL (    2092 calls)
     vloc_psi     :     33.99s CPU     35.06s WALL (    2092 calls)
     add_vuspsi   :      3.60s CPU      3.64s WALL (    2092 calls)

     General routines
     calbec       :      5.89s CPU      6.30s WALL (    2974 calls)
     fft          :      0.12s CPU      0.21s WALL (     142 calls)
     ffts         :      0.01s CPU      0.01s WALL (      18 calls)
     fftw         :     37.31s CPU     38.46s WALL (  221688 calls)
     interpolate  :      0.01s CPU      0.01s WALL (       9 calls)
 
     Parallel routines
     fft_scatt_xy :      3.63s CPU      3.74s WALL (  221848 calls)
     fft_scatt_yz :     18.79s CPU     19.41s WALL (  221848 calls)
 
     PWSCF        :  1m25.60s CPU     1m28.41s WALL

 
   This run was terminated on:   1:19:21  12Mar2020            

=------------------------------------------------------------------------------=
   JOB DONE.
=------------------------------------------------------------------------------=
