
     Program PWSCF v.6.3 starts on 12Mar2020 at  1: 6:58 

     This program is part of the open-source Quantum ESPRESSO suite
     for quantum simulation of materials; please cite
         "P. Giannozzi et al., J. Phys.:Condens. Matter 21 395502 (2009);
         "P. Giannozzi et al., J. Phys.:Condens. Matter 29 465901 (2017);
          URL http://www.quantum-espresso.org", 
     in publications or presentations arising from this work. More details at
     http://www.quantum-espresso.org/quote

     Parallel version (MPI & OpenMP), running on      20 processor cores
     Number of MPI processes:                20
     Threads/MPI process:                     1

     MPI processes distributed on     1 nodes
     R & G space division:  proc/nbgrp/npool/nimage =      20
     Reading input from wd/kpoints/file_000137.in
Warning: card &IONS ignored
Warning: card ION_DYNAMICS = 'BFGS', ignored
Warning: card / ignored
Warning: card &CELL ignored
Warning: card CELL_DYNAMICS = 'BFGS', ignored
Warning: card CELL_FACTOR = 2.0, ignored
Warning: card PRESS = 0.0, ignored
Warning: card / ignored

     Current dimensions of program PWSCF are:
     Max number of different atomic species (ntypx) = 10
     Max number of k-points (npk) =  40000
     Max angular momentum in pseudopotentials (lmaxx) =  3
     Message from routine read_upf::
     Pseudo file /rds/homes/b/bxp912/pp/Al.pbe-nl-kjpaw_psl.1.0.0.UPF has been successfully fixed on the fly.
To avoid this message in the future you can permanently fix 
 your pseudo files following instructions given in: 
https://gitlab.com/QEF/q-e/blob/master/upftools/how_to_fix_upf.md
               file Al.pbe-nl-kjpaw_psl.1.0.0.UPF: wavefunction(s)  3S 3P renormalized

     Subspace diagonalization in iterative solution of the eigenvalue problem:
     a serial algorithm will be used

 
     Parallelization info
     --------------------
     sticks:   dense  smooth     PW     G-vecs:    dense   smooth      PW
     Min          96      96     27                 3225     3198     487
     Max          98      97     28                 3241     3201     490
     Sum        1941    1933    553                64589    63989    9771
 


     bravais-lattice index     =            0
     lattice parameter (alat)  =      15.2712  a.u.
     unit-cell volume          =    3561.3897 (a.u.)^3
     number of atoms/cell      =           32
     number of atomic types    =            1
     number of electrons       =        96.00
     number of Kohn-Sham states=           58
     kinetic-energy cutoff     =      26.0000  Ry
     charge density cutoff     =     105.0000  Ry
     convergence threshold     =      1.0E-06
     mixing beta               =       0.1000
     number of iterations used =           10  TF        mixing
     Exchange-correlation      = SLA PW PBX PBC ( 1  4  3  4 0 0)

     celldm(1)=  15.271200  celldm(2)=   0.000000  celldm(3)=   0.000000
     celldm(4)=   0.000000  celldm(5)=   0.000000  celldm(6)=   0.000000

     crystal axes: (cart. coord. in units of alat)
               a(1) = (   1.000000   0.000000   0.000000 )  
               a(2) = (   0.000000   1.000000   0.000000 )  
               a(3) = (   0.000000   0.000000   1.000000 )  

     reciprocal axes: (cart. coord. in units 2 pi/alat)
               b(1) = (  1.000000  0.000000  0.000000 )  
               b(2) = (  0.000000  1.000000  0.000000 )  
               b(3) = (  0.000000  0.000000  1.000000 )  


     PseudoPot. # 1 for Al read from file:
     /rds/homes/b/bxp912/pp/Al.pbe-nl-kjpaw_psl.1.0.0.UPF
     MD5 check sum: 339dbea23cf3ab9a065ad45c0f9085d7
     Pseudo is Projector augmented-wave + core cor, Zval =  3.0
     Generated using "atomic" code by A. Dal Corso v.5.1
     Shape of augmentation charge: PSQ
     Using radial grid of 1135 points,  4 beta functions with: 
                l(1) =   0
                l(2) =   0
                l(3) =   1
                l(4) =   1
     Q(r) pseudized with 0 coefficients 


     atomic species   valence    mass     pseudopotential
        Al             3.00    26.98200     Al( 1.00)

     No symmetry found



   Cartesian axes

     site n.     atom                  positions (alat units)
         1           Al  tau(   1) = (  -0.0000327   0.0000095   0.0000680  )
         2           Al  tau(   2) = (   0.2500796   0.2498100   0.0000703  )
         3           Al  tau(   3) = (   0.2499071   0.0000305   0.2502955  )
         4           Al  tau(   4) = (  -0.0000200   0.2502187   0.2501837  )
         5           Al  tau(   5) = (   0.0002558   0.0002521   0.4998810  )
         6           Al  tau(   6) = (   0.2501194   0.2498326   0.5000036  )
         7           Al  tau(   7) = (   0.2500278   0.0001539   0.7498880  )
         8           Al  tau(   8) = (   0.0000549   0.2501136   0.7502101  )
         9           Al  tau(   9) = (   0.0002375   0.5001078  -0.0000154  )
        10           Al  tau(  10) = (   0.2501396   0.7501762   0.0004054  )
        11           Al  tau(  11) = (   0.2501891   0.5001088   0.2502510  )
        12           Al  tau(  12) = (   0.0000383   0.7500455   0.2500253  )
        13           Al  tau(  13) = (   0.0001102   0.5001562   0.5000990  )
        14           Al  tau(  14) = (   0.2499640   0.7500632   0.4998706  )
        15           Al  tau(  15) = (   0.2503366   0.4997894   0.7496960  )
        16           Al  tau(  16) = (  -0.0003280   0.7497055   0.7499931  )
        17           Al  tau(  17) = (   0.5002037  -0.0001004  -0.0000387  )
        18           Al  tau(  18) = (   0.7499123   0.2500941  -0.0002332  )
        19           Al  tau(  19) = (   0.7496354  -0.0000959   0.2500771  )
        20           Al  tau(  20) = (   0.4999751   0.2499614   0.2498317  )
        21           Al  tau(  21) = (   0.4999211   0.0002929   0.4999726  )
        22           Al  tau(  22) = (   0.7500684   0.2496958   0.4999523  )
        23           Al  tau(  23) = (   0.7500357  -0.0000687   0.7500257  )
        24           Al  tau(  24) = (   0.5000114   0.2498864   0.7499948  )
        25           Al  tau(  25) = (   0.4998526   0.5001156  -0.0002192  )
        26           Al  tau(  26) = (   0.7497723   0.7500978   0.0002736  )
        27           Al  tau(  27) = (   0.7501007   0.4998018   0.2499462  )
        28           Al  tau(  28) = (   0.5000878   0.7497908   0.2502093  )
        29           Al  tau(  29) = (   0.4996761   0.5001027   0.5000404  )
        30           Al  tau(  30) = (   0.7501658   0.7499872   0.4998547  )
        31           Al  tau(  31) = (   0.7499472   0.5000095   0.7501393  )
        32           Al  tau(  32) = (   0.5000142   0.7499486   0.7499177  )

     number of k points=    14  Marzari-Vanderbilt smearing, width (Ry)=  0.0100
                       cart. coord. in units 2pi/alat
        k(    1) = (   0.1666667   0.1666667   0.1666667), wk =   0.1481481
        k(    2) = (   0.1666667   0.1666667  -0.5000000), wk =   0.1481481
        k(    3) = (   0.1666667  -0.5000000  -0.5000000), wk =   0.1481481
        k(    4) = (  -0.5000000  -0.5000000  -0.5000000), wk =   0.0740741
        k(    5) = (  -0.1666667  -0.1666667   0.1666667), wk =   0.1481481
        k(    6) = (  -0.1666667   0.1666667  -0.1666667), wk =   0.1481481
        k(    7) = (   0.1666667  -0.1666667  -0.1666667), wk =   0.1481481
        k(    8) = (  -0.1666667   0.1666667   0.5000000), wk =   0.1481481
        k(    9) = (  -0.5000000  -0.1666667   0.1666667), wk =   0.1481481
        k(   10) = (   0.5000000  -0.1666667  -0.1666667), wk =   0.1481481
        k(   11) = (  -0.1666667  -0.5000000   0.1666667), wk =   0.1481481
        k(   12) = (  -0.1666667   0.5000000  -0.1666667), wk =   0.1481481
        k(   13) = (  -0.5000000   0.1666667   0.5000000), wk =   0.1481481
        k(   14) = (  -0.5000000   0.5000000   0.1666667), wk =   0.1481481

     Dense  grid:    64589 G-vectors     FFT dimensions: (  50,  50,  50)

     Smooth grid:    63989 G-vectors     FFT dimensions: (  50,  50,  50)

     Estimated max dynamical RAM per process >      16.38 MB

     Estimated total dynamical RAM >     327.61 MB

     Initial potential from superposition of free atoms

     starting charge   95.92671, renormalised to   96.00000
     Starting wfcs are  128 randomized atomic wfcs
     Checking if some PAW data can be deallocated... 

     total cpu time spent up to now is        2.3 secs

     Self-consistent Calculation

     iteration #  1     ecut=    26.00 Ry     beta= 0.10
     Davidson diagonalization with overlap
     ethr =  1.00E-02,  avg # of iterations =  3.0

     Threshold (ethr) on eigenvalues was too large:
     Diagonalizing with lowered threshold

     Davidson diagonalization with overlap
     ethr =  1.94E-04,  avg # of iterations =  3.6

     total cpu time spent up to now is        6.8 secs

     total energy              =   -1264.10255170 Ry
     Harris-Foulkes estimate   =   -1264.10867704 Ry
     estimated scf accuracy    <       0.18115969 Ry

     iteration #  2     ecut=    26.00 Ry     beta= 0.10
     Davidson diagonalization with overlap
     ethr =  1.89E-04,  avg # of iterations =  1.0

     total cpu time spent up to now is        8.3 secs

     total energy              =   -1264.05583442 Ry
     Harris-Foulkes estimate   =   -1264.10336195 Ry
     estimated scf accuracy    <       0.15723408 Ry

     iteration #  3     ecut=    26.00 Ry     beta= 0.10
     Davidson diagonalization with overlap
     ethr =  1.64E-04,  avg # of iterations =  1.0

     total cpu time spent up to now is        9.7 secs

     total energy              =   -1264.05865970 Ry
     Harris-Foulkes estimate   =   -1264.05879437 Ry
     estimated scf accuracy    <       0.00062365 Ry

     iteration #  4     ecut=    26.00 Ry     beta= 0.10
     Davidson diagonalization with overlap
     ethr =  6.50E-07,  avg # of iterations =  4.9

     total cpu time spent up to now is       12.8 secs

     total energy              =   -1264.05927313 Ry
     Harris-Foulkes estimate   =   -1264.05943762 Ry
     estimated scf accuracy    <       0.00036021 Ry

     iteration #  5     ecut=    26.00 Ry     beta= 0.10
     Davidson diagonalization with overlap
     ethr =  3.75E-07,  avg # of iterations =  1.0

     total cpu time spent up to now is       14.3 secs

     total energy              =   -1264.05908889 Ry
     Harris-Foulkes estimate   =   -1264.05928371 Ry
     estimated scf accuracy    <       0.00023081 Ry

     iteration #  6     ecut=    26.00 Ry     beta= 0.10
     Davidson diagonalization with overlap
     ethr =  2.40E-07,  avg # of iterations =  2.0

     total cpu time spent up to now is       16.3 secs

     total energy              =   -1264.05915069 Ry
     Harris-Foulkes estimate   =   -1264.05915193 Ry
     estimated scf accuracy    <       0.00001350 Ry

     iteration #  7     ecut=    26.00 Ry     beta= 0.10
     Davidson diagonalization with overlap
     ethr =  1.41E-08,  avg # of iterations =  2.0

     total cpu time spent up to now is       18.0 secs

     total energy              =   -1264.05914119 Ry
     Harris-Foulkes estimate   =   -1264.05915156 Ry
     estimated scf accuracy    <       0.00000573 Ry

     iteration #  8     ecut=    26.00 Ry     beta= 0.10
     Davidson diagonalization with overlap
     ethr =  5.96E-09,  avg # of iterations =  2.2

     total cpu time spent up to now is       19.8 secs

     End of self-consistent calculation

          k = 0.1667 0.1667 0.1667 (  8003 PWs)   bands (ev):

    -3.0429  -1.5436  -1.5411  -1.5381  -0.0587  -0.0578  -0.0556  -0.0545
    -0.0532  -0.0496   1.4119   1.4131   1.4153   1.4165   1.4176   1.4182
     1.4204   2.8663   2.8681   2.8694   2.8701   2.8720   2.8745   4.2341
     4.2348   4.2355   4.3315   4.3322   4.3330   5.6430   5.6434   5.6463
     5.6470   5.6484   5.6497   5.7601   7.0612   7.0615   7.0632   7.0649
     7.0659   7.0666   7.0750   7.0775   7.0806   7.4083   7.4090   7.4098
     8.4793   8.4799   8.4816   8.4830   8.4842   8.4848   8.8192   8.8206
     8.8217   8.8238

          k = 0.1667 0.1667-0.5000 (  7946 PWs)   bands (ev):

    -2.5417  -2.5393  -1.0455  -1.0447  -1.0432  -1.0416   0.4334   0.4352
     0.4368   0.4378   0.4394   0.4401   1.8957   1.8969   1.9016   1.9023
     1.9041   1.9049   3.3448   3.3458   3.3463   3.3466   3.3489   3.3508
     4.7063   4.7068   4.7087   4.7095   4.7732   4.7744   4.7745   4.7756
     4.8037   4.8049   6.1406   6.1413   6.1429   6.1446   6.2249   6.2254
     6.2262   6.2271   7.5416   7.5422   7.5439   7.5455   7.6426   7.6440
     7.8576   7.8583   7.8599   7.8609   8.9809   8.9811   8.9823   8.9831
     9.3412   9.3431

          k = 0.1667-0.5000-0.5000 (  7948 PWs)   bands (ev):

    -2.0421  -2.0411  -2.0387  -2.0374  -0.5505  -0.5496  -0.5471  -0.5458
     0.9250   0.9260   0.9285   0.9298   2.3776   2.3789   2.3797   2.3806
     2.3815   2.3836   2.3846   2.3853   3.8174   3.8189   3.8196   3.8206
     3.8213   3.8236   3.8245   3.8252   5.1727   5.1738   5.1763   5.1778
     5.2767   5.2779   5.2786   5.2796   5.2807   5.2826   5.2837   5.2844
     6.6693   6.6699   6.6711   6.6719   8.1015   8.1021   8.1033   8.1041
     8.4128   8.4137   8.4158   8.4171   9.3911   9.3923   9.3938   9.3947
     9.3974   9.3988

          k =-0.5000-0.5000-0.5000 (  8024 PWs)   bands (ev):

    -1.5456  -1.5448  -1.5422  -1.5417  -1.5405  -1.5386  -1.5382  -1.5355
     2.8570   2.8574   2.8586   2.8592   2.8605   2.8614   2.8616   2.8626
     2.8628   2.8635   2.8638   2.8644   2.8647   2.8650   2.8657   2.8659
     2.8667   2.8676   2.8682   2.8684   2.8692   2.8707   2.8722   2.8742
     7.1504   7.1514   7.1521   7.1527   7.1538   7.1544   7.1549   7.1551
     7.1553   7.1560   7.1571   7.1576   7.1583   7.1586   7.1588   7.1595
     7.1599   7.1606   7.1610   7.1612   7.1623   7.1629   7.1646   7.1648
    11.3571  11.5719

          k =-0.1667-0.1667 0.1667 (  8003 PWs)   bands (ev):

    -3.0429  -1.5430  -1.5411  -1.5386  -0.0584  -0.0571  -0.0558  -0.0544
    -0.0520  -0.0517   1.4115   1.4146   1.4150   1.4160   1.4173   1.4182
     1.4205   2.8672   2.8681   2.8689   2.8702   2.8717   2.8743   4.2344
     4.2348   4.2352   4.3318   4.3322   4.3327   5.6421   5.6451   5.6456
     5.6467   5.6484   5.6498   5.7601   7.0612   7.0627   7.0635   7.0645
     7.0653   7.0663   7.0755   7.0775   7.0800   7.4086   7.4090   7.4095
     8.4796   8.4808   8.4818   8.4826   8.4833   8.4847   8.8194   8.8207
     8.8222   8.8232

          k =-0.1667 0.1667-0.1667 (  8003 PWs)   bands (ev):

    -3.0429  -1.5435  -1.5409  -1.5383  -0.0588  -0.0575  -0.0552  -0.0542
    -0.0526  -0.0511   1.4125   1.4131   1.4147   1.4158   1.4178   1.4190
     1.4203   2.8675   2.8679   2.8687   2.8700   2.8721   2.8742   4.2340
     4.2348   4.2355   4.3314   4.3322   4.3331   5.6432   5.6438   5.6451
     5.6463   5.6489   5.6505   5.7601   7.0613   7.0622   7.0629   7.0647
     7.0658   7.0667   7.0750   7.0776   7.0803   7.4082   7.4090   7.4099
     8.4796   8.4803   8.4811   8.4832   8.4838   8.4848   8.8196   8.8205
     8.8218   8.8233

          k = 0.1667-0.1667-0.1667 (  8003 PWs)   bands (ev):

    -3.0429  -1.5432  -1.5416  -1.5380  -0.0589  -0.0571  -0.0557  -0.0551
    -0.0537  -0.0489   1.4126   1.4131   1.4141   1.4161   1.4171   1.4179
     1.4221   2.8665   2.8676   2.8688   2.8706   2.8715   2.8754   4.2339
     4.2348   4.2356   4.3313   4.3322   4.3331   5.6429   5.6440   5.6454
     5.6468   5.6481   5.6506   5.7601   7.0609   7.0623   7.0629   7.0646
     7.0651   7.0669   7.0757   7.0773   7.0807   7.4082   7.4090   7.4100
     8.4790   8.4807   8.4813   8.4832   8.4836   8.4850   8.8196   8.8200
     8.8220   8.8233

          k =-0.1667 0.1667 0.5000 (  7946 PWs)   bands (ev):

    -2.5417  -2.5393  -1.0461  -1.0441  -1.0436  -1.0413   0.4337   0.4346
     0.4364   0.4379   0.4394   0.4407   1.8955   1.8968   1.9015   1.9027
     1.9039   1.9052   3.3445   3.3457   3.3464   3.3476   3.3485   3.3506
     4.7059   4.7072   4.7085   4.7097   4.7728   4.7740   4.7748   4.7760
     4.8038   4.8050   6.1400   6.1420   6.1425   6.1450   6.2244   6.2256
     6.2263   6.2273   7.5414   7.5425   7.5440   7.5454   7.6426   7.6440
     7.8571   7.8588   7.8597   7.8612   8.9805   8.9815   8.9823   8.9831
     9.3409   9.3426

          k =-0.5000-0.1667 0.1667 (  7946 PWs)   bands (ev):

    -2.5418  -2.5392  -1.0467  -1.0439  -1.0431  -1.0414   0.4338   0.4357
     0.4365   0.4378   0.4388   0.4402   1.8956   1.8967   1.9017   1.9022
     1.9040   1.9053   3.3443   3.3456   3.3467   3.3478   3.3483   3.3505
     4.7063   4.7065   4.7085   4.7099   4.7726   4.7739   4.7750   4.7762
     4.8036   4.8050   6.1394   6.1422   6.1431   6.1449   6.2248   6.2255
     6.2258   6.2276   7.5409   7.5426   7.5443   7.5453   7.6426   7.6440
     7.8576   7.8581   7.8596   7.8614   8.9804   8.9815   8.9818   8.9837
     9.3403   9.3437

          k = 0.5000-0.1667-0.1667 (  7946 PWs)   bands (ev):

    -2.5418  -2.5392  -1.0470  -1.0439  -1.0432  -1.0410   0.4325   0.4353
     0.4362   0.4379   0.4388   0.4421   1.8957   1.8965   1.9012   1.9026
     1.9043   1.9051   3.3437   3.3450   3.3467   3.3477   3.3488   3.3511
     4.7058   4.7070   4.7086   4.7097   4.7720   4.7734   4.7755   4.7767
     4.8037   4.8052   6.1390   6.1422   6.1429   6.1452   6.2245   6.2257
     6.2263   6.2273   7.5411   7.5424   7.5435   7.5461   7.6426   7.6440
     7.8571   7.8586   7.8599   7.8612   8.9805   8.9814   8.9824   8.9831
     9.3404   9.3428

          k =-0.1667-0.5000 0.1667 (  7946 PWs)   bands (ev):

    -2.5408  -2.5402  -1.0459  -1.0454  -1.0427  -1.0411   0.4341   0.4347
     0.4366   0.4370   0.4392   0.4413   1.8959   1.8965   1.9028   1.9029
     1.9035   1.9039   3.3442   3.3444   3.3476   3.3480   3.3491   3.3498
     4.7075   4.7075   4.7081   4.7082   4.7725   4.7727   4.7760   4.7765
     4.8042   4.8046   6.1402   6.1407   6.1435   6.1451   6.2256   6.2257
     6.2261   6.2262   7.5417   7.5429   7.5440   7.5446   7.6431   7.6435
     7.8588   7.8589   7.8594   7.8596   8.9815   8.9816   8.9821   8.9822
     9.3410   9.3431

          k =-0.1667 0.5000-0.1667 (  7946 PWs)   bands (ev):

    -2.5408  -2.5402  -1.0462  -1.0456  -1.0421  -1.0412   0.4340   0.4349
     0.4370   0.4378   0.4387   0.4404   1.8958   1.8963   1.9028   1.9031
     1.9033   1.9041   3.3438   3.3442   3.3476   3.3481   3.3496   3.3499
     4.7074   4.7075   4.7076   4.7087   4.7721   4.7724   4.7765   4.7768
     4.8041   4.8045   6.1399   6.1405   6.1441   6.1450   6.2253   6.2257
     6.2258   6.2269   7.5419   7.5425   7.5440   7.5448   7.6431   7.6435
     7.8587   7.8589   7.8589   7.8602   8.9812   8.9814   8.9819   8.9828
     9.3414   9.3418

          k =-0.5000 0.1667 0.5000 (  7948 PWs)   bands (ev):

    -2.0435  -2.0409  -2.0386  -2.0363  -0.5520  -0.5493  -0.5470  -0.5448
     0.9236   0.9263   0.9286   0.9309   2.3772   2.3778   2.3793   2.3816
     2.3826   2.3830   2.3841   2.3862   3.8171   3.8177   3.8192   3.8216
     3.8226   3.8229   3.8241   3.8261   5.1712   5.1740   5.1765   5.1789
     5.2761   5.2770   5.2782   5.2806   5.2815   5.2822   5.2832   5.2853
     6.6687   6.6700   6.6713   6.6723   8.1008   8.1023   8.1034   8.1046
     8.4115   8.4141   8.4159   8.4180   9.3907   9.3920   9.3953   9.3961
     9.3977   9.3993

          k =-0.5000 0.5000 0.1667 (  7948 PWs)   bands (ev):

    -2.0419  -2.0408  -2.0384  -2.0382  -0.5504  -0.5492  -0.5468  -0.5466
     0.9252   0.9263   0.9288   0.9290   2.3777   2.3791   2.3796   2.3811
     2.3818   2.3834   2.3842   2.3849   3.8176   3.8190   3.8195   3.8211
     3.8217   3.8233   3.8243   3.8248   5.1729   5.1741   5.1767   5.1769
     5.2768   5.2780   5.2788   5.2801   5.2809   5.2825   5.2832   5.2839
     6.6695   6.6701   6.6713   6.6714   8.1016   8.1023   8.1036   8.1037
     8.4130   8.4139   8.4162   8.4164   9.3913   9.3927   9.3932   9.3954
     9.3966   9.3980

     the Fermi energy is     7.8278 ev

!    total energy              =   -1264.05914200 Ry
     Harris-Foulkes estimate   =   -1264.05914197 Ry
     estimated scf accuracy    <       0.00000084 Ry

     total all-electron energy =    -15540.628164 Ry

     The total energy is the sum of the following terms:

     one-electron contribution =     101.27547172 Ry
     hartree contribution      =       0.20433441 Ry
     xc contribution           =     -82.92038018 Ry
     ewald contribution        =    -172.93188273 Ry
     one-center paw contrib.   =   -1109.68712997 Ry
     smearing contrib. (-TS)   =       0.00044474 Ry

     convergence has been achieved in   8 iterations

     Forces acting on atoms (cartesian axes, Ry/au):

     atom    1 type  1   force =     0.00001595   -0.00000816   -0.00000076
     atom    2 type  1   force =    -0.00012278    0.00021695    0.00005982
     atom    3 type  1   force =     0.00020962   -0.00003731   -0.00054349
     atom    4 type  1   force =    -0.00007086   -0.00015033   -0.00034550
     atom    5 type  1   force =    -0.00045196   -0.00039925    0.00034558
     atom    6 type  1   force =    -0.00015712    0.00044257    0.00002505
     atom    7 type  1   force =    -0.00016848   -0.00053933    0.00035672
     atom    8 type  1   force =     0.00006133   -0.00007424   -0.00024299
     atom    9 type  1   force =    -0.00000318   -0.00007175    0.00011992
     atom   10 type  1   force =    -0.00019796   -0.00008095   -0.00064516
     atom   11 type  1   force =    -0.00023698   -0.00025195   -0.00040048
     atom   12 type  1   force =    -0.00008155    0.00004267   -0.00007243
     atom   13 type  1   force =    -0.00017210   -0.00033168   -0.00002154
     atom   14 type  1   force =    -0.00003534    0.00015407    0.00042937
     atom   15 type  1   force =    -0.00053646    0.00030066    0.00050099
     atom   16 type  1   force =     0.00059982    0.00051494    0.00011750
     atom   17 type  1   force =    -0.00042913    0.00003178    0.00009321
     atom   18 type  1   force =     0.00020911   -0.00004530    0.00046383
     atom   19 type  1   force =     0.00051202    0.00023356   -0.00008348
     atom   20 type  1   force =     0.00011236    0.00021373    0.00005611
     atom   21 type  1   force =     0.00023112   -0.00055536    0.00011870
     atom   22 type  1   force =    -0.00012481    0.00058922    0.00011659
     atom   23 type  1   force =     0.00013901   -0.00012881   -0.00021505
     atom   24 type  1   force =     0.00011283    0.00015321   -0.00010119
     atom   25 type  1   force =     0.00010769   -0.00018527    0.00032636
     atom   26 type  1   force =     0.00030864   -0.00020500   -0.00027599
     atom   27 type  1   force =    -0.00016138   -0.00001330    0.00011241
     atom   28 type  1   force =    -0.00010563    0.00024540   -0.00008730
     atom   29 type  1   force =     0.00082955   -0.00035611   -0.00010660
     atom   30 type  1   force =    -0.00024838    0.00005756    0.00027580
     atom   31 type  1   force =    -0.00007276   -0.00005280   -0.00036412
     atom   32 type  1   force =    -0.00007217    0.00029058   -0.00001186

     Total force =     0.002751     Total SCF correction =     0.000505
     SCF correction compared to forces is large: reduce conv_thr to get better values


     Computing stress (Cartesian axis) and pressure

          total   stress  (Ry/bohr**3)                   (kbar)     P=   -1.59
  -0.00001081  -0.00000000  -0.00000001         -1.59     -0.00     -0.00
  -0.00000000  -0.00001080   0.00000000         -0.00     -1.59      0.00
  -0.00000001   0.00000000  -0.00001082         -0.00      0.00     -1.59


     Writing output data file fe_scf_fcc_2.save/
 
     init_run     :      1.41s CPU      1.55s WALL (       1 calls)
     electrons    :     17.05s CPU     17.50s WALL (       1 calls)
     forces       :      0.27s CPU      0.29s WALL (       1 calls)
     stress       :      0.85s CPU      0.85s WALL (       1 calls)

     Called by init_run:
     wfcinit      :      1.09s CPU      1.14s WALL (       1 calls)
     potinit      :      0.11s CPU      0.12s WALL (       1 calls)
     hinit0       :      0.18s CPU      0.26s WALL (       1 calls)

     Called by electrons:
     c_bands      :     14.24s CPU     14.59s WALL (       9 calls)
     sum_band     :      1.89s CPU      1.97s WALL (       9 calls)
     v_of_rho     :      0.07s CPU      0.07s WALL (       9 calls)
     newd         :      0.05s CPU      0.05s WALL (       9 calls)
     PAW_pot      :      0.87s CPU      0.88s WALL (       9 calls)
     mix_rho      :      0.02s CPU      0.02s WALL (       9 calls)

     Called by c_bands:
     init_us_2    :      0.29s CPU      0.30s WALL (     294 calls)
     cegterg      :     13.45s CPU     13.79s WALL (     126 calls)

     Called by sum_band:
     sum_band:bec :      0.02s CPU      0.02s WALL (     126 calls)
     addusdens    :      0.04s CPU      0.05s WALL (       9 calls)

     Called by *egterg:
     h_psi        :      9.32s CPU      9.63s WALL (     429 calls)
     s_psi        :      0.77s CPU      0.77s WALL (     429 calls)
     g_psi        :      0.03s CPU      0.03s WALL (     289 calls)
     cdiaghg      :      2.66s CPU      2.68s WALL (     401 calls)

     Called by h_psi:
     h_psi:pot    :      9.27s CPU      9.58s WALL (     429 calls)
     h_psi:calbec :      0.85s CPU      0.91s WALL (     429 calls)
     vloc_psi     :      7.63s CPU      7.87s WALL (     429 calls)
     add_vuspsi   :      0.78s CPU      0.79s WALL (     429 calls)

     General routines
     calbec       :      1.28s CPU      1.38s WALL (     625 calls)
     fft          :      0.23s CPU      0.32s WALL (     142 calls)
     ffts         :      0.01s CPU      0.01s WALL (      18 calls)
     fftw         :      8.36s CPU      8.62s WALL (   48880 calls)
     interpolate  :      0.01s CPU      0.01s WALL (       9 calls)
 
     Parallel routines
     fft_scatt_xy :      0.80s CPU      0.83s WALL (   49040 calls)
     fft_scatt_yz :      4.51s CPU      4.66s WALL (   49040 calls)
 
     PWSCF        :    20.48s CPU        21.27s WALL

 
   This run was terminated on:   1: 7:19  12Mar2020            

=------------------------------------------------------------------------------=
   JOB DONE.
=------------------------------------------------------------------------------=
