
     Program PWSCF v.6.3 starts on 12Mar2020 at  1:22:31 

     This program is part of the open-source Quantum ESPRESSO suite
     for quantum simulation of materials; please cite
         "P. Giannozzi et al., J. Phys.:Condens. Matter 21 395502 (2009);
         "P. Giannozzi et al., J. Phys.:Condens. Matter 29 465901 (2017);
          URL http://www.quantum-espresso.org", 
     in publications or presentations arising from this work. More details at
     http://www.quantum-espresso.org/quote

     Parallel version (MPI & OpenMP), running on      20 processor cores
     Number of MPI processes:                20
     Threads/MPI process:                     1

     MPI processes distributed on     1 nodes
     R & G space division:  proc/nbgrp/npool/nimage =      20
     Reading input from wd/kpoints/file_000151.in
Warning: card &IONS ignored
Warning: card ION_DYNAMICS = 'BFGS', ignored
Warning: card / ignored
Warning: card &CELL ignored
Warning: card CELL_DYNAMICS = 'BFGS', ignored
Warning: card CELL_FACTOR = 2.0, ignored
Warning: card PRESS = 0.0, ignored
Warning: card / ignored

     Current dimensions of program PWSCF are:
     Max number of different atomic species (ntypx) = 10
     Max number of k-points (npk) =  40000
     Max angular momentum in pseudopotentials (lmaxx) =  3
     Message from routine read_upf::
     Pseudo file /rds/homes/b/bxp912/pp/Al.pbe-nl-kjpaw_psl.1.0.0.UPF has been successfully fixed on the fly.
To avoid this message in the future you can permanently fix 
 your pseudo files following instructions given in: 
https://gitlab.com/QEF/q-e/blob/master/upftools/how_to_fix_upf.md
               file Al.pbe-nl-kjpaw_psl.1.0.0.UPF: wavefunction(s)  3S 3P renormalized

     Subspace diagonalization in iterative solution of the eigenvalue problem:
     a serial algorithm will be used

 
     Parallelization info
     --------------------
     sticks:   dense  smooth     PW     G-vecs:    dense   smooth      PW
     Min          96      96     27                 3225     3198     487
     Max          98      97     28                 3241     3201     490
     Sum        1941    1933    553                64589    63989    9771
 


     bravais-lattice index     =            0
     lattice parameter (alat)  =      15.2712  a.u.
     unit-cell volume          =    3561.3897 (a.u.)^3
     number of atoms/cell      =           32
     number of atomic types    =            1
     number of electrons       =        96.00
     number of Kohn-Sham states=           58
     kinetic-energy cutoff     =      26.0000  Ry
     charge density cutoff     =     105.0000  Ry
     convergence threshold     =      1.0E-06
     mixing beta               =       0.1000
     number of iterations used =           10  TF        mixing
     Exchange-correlation      = SLA PW PBX PBC ( 1  4  3  4 0 0)

     celldm(1)=  15.271200  celldm(2)=   0.000000  celldm(3)=   0.000000
     celldm(4)=   0.000000  celldm(5)=   0.000000  celldm(6)=   0.000000

     crystal axes: (cart. coord. in units of alat)
               a(1) = (   1.000000   0.000000   0.000000 )  
               a(2) = (   0.000000   1.000000   0.000000 )  
               a(3) = (   0.000000   0.000000   1.000000 )  

     reciprocal axes: (cart. coord. in units 2 pi/alat)
               b(1) = (  1.000000  0.000000  0.000000 )  
               b(2) = (  0.000000  1.000000  0.000000 )  
               b(3) = (  0.000000  0.000000  1.000000 )  


     PseudoPot. # 1 for Al read from file:
     /rds/homes/b/bxp912/pp/Al.pbe-nl-kjpaw_psl.1.0.0.UPF
     MD5 check sum: 339dbea23cf3ab9a065ad45c0f9085d7
     Pseudo is Projector augmented-wave + core cor, Zval =  3.0
     Generated using "atomic" code by A. Dal Corso v.5.1
     Shape of augmentation charge: PSQ
     Using radial grid of 1135 points,  4 beta functions with: 
                l(1) =   0
                l(2) =   0
                l(3) =   1
                l(4) =   1
     Q(r) pseudized with 0 coefficients 


     atomic species   valence    mass     pseudopotential
        Al             3.00    26.98200     Al( 1.00)

     No symmetry found



   Cartesian axes

     site n.     atom                  positions (alat units)
         1           Al  tau(   1) = (  -0.0000327   0.0000095   0.0000680  )
         2           Al  tau(   2) = (   0.2500796   0.2498100   0.0000703  )
         3           Al  tau(   3) = (   0.2499071   0.0000305   0.2502955  )
         4           Al  tau(   4) = (  -0.0000200   0.2502187   0.2501837  )
         5           Al  tau(   5) = (   0.0002558   0.0002521   0.4998810  )
         6           Al  tau(   6) = (   0.2501194   0.2498326   0.5000036  )
         7           Al  tau(   7) = (   0.2500278   0.0001539   0.7498880  )
         8           Al  tau(   8) = (   0.0000549   0.2501136   0.7502101  )
         9           Al  tau(   9) = (   0.0002375   0.5001078  -0.0000154  )
        10           Al  tau(  10) = (   0.2501396   0.7501762   0.0004054  )
        11           Al  tau(  11) = (   0.2501891   0.5001088   0.2502510  )
        12           Al  tau(  12) = (   0.0000383   0.7500455   0.2500253  )
        13           Al  tau(  13) = (   0.0001102   0.5001562   0.5000990  )
        14           Al  tau(  14) = (   0.2499640   0.7500632   0.4998706  )
        15           Al  tau(  15) = (   0.2503366   0.4997894   0.7496960  )
        16           Al  tau(  16) = (  -0.0003280   0.7497055   0.7499931  )
        17           Al  tau(  17) = (   0.5002037  -0.0001004  -0.0000387  )
        18           Al  tau(  18) = (   0.7499123   0.2500941  -0.0002332  )
        19           Al  tau(  19) = (   0.7496354  -0.0000959   0.2500771  )
        20           Al  tau(  20) = (   0.4999751   0.2499614   0.2498317  )
        21           Al  tau(  21) = (   0.4999211   0.0002929   0.4999726  )
        22           Al  tau(  22) = (   0.7500684   0.2496958   0.4999523  )
        23           Al  tau(  23) = (   0.7500357  -0.0000687   0.7500257  )
        24           Al  tau(  24) = (   0.5000114   0.2498864   0.7499948  )
        25           Al  tau(  25) = (   0.4998526   0.5001156  -0.0002192  )
        26           Al  tau(  26) = (   0.7497723   0.7500978   0.0002736  )
        27           Al  tau(  27) = (   0.7501007   0.4998018   0.2499462  )
        28           Al  tau(  28) = (   0.5000878   0.7497908   0.2502093  )
        29           Al  tau(  29) = (   0.4996761   0.5001027   0.5000404  )
        30           Al  tau(  30) = (   0.7501658   0.7499872   0.4998547  )
        31           Al  tau(  31) = (   0.7499472   0.5000095   0.7501393  )
        32           Al  tau(  32) = (   0.5000142   0.7499486   0.7499177  )

     number of k points=    63  Marzari-Vanderbilt smearing, width (Ry)=  0.0500
                       cart. coord. in units 2pi/alat
        k(    1) = (   0.1000000   0.1000000   0.1000000), wk =   0.0320000
        k(    2) = (   0.1000000   0.1000000   0.3000000), wk =   0.0320000
        k(    3) = (   0.1000000   0.1000000  -0.5000000), wk =   0.0320000
        k(    4) = (   0.1000000   0.3000000   0.3000000), wk =   0.0320000
        k(    5) = (   0.1000000   0.3000000  -0.5000000), wk =   0.0320000
        k(    6) = (   0.1000000  -0.5000000  -0.5000000), wk =   0.0320000
        k(    7) = (   0.3000000   0.3000000   0.3000000), wk =   0.0320000
        k(    8) = (   0.3000000   0.3000000  -0.5000000), wk =   0.0320000
        k(    9) = (   0.3000000  -0.5000000  -0.5000000), wk =   0.0320000
        k(   10) = (  -0.5000000  -0.5000000  -0.5000000), wk =   0.0160000
        k(   11) = (  -0.1000000  -0.1000000   0.1000000), wk =   0.0320000
        k(   12) = (  -0.1000000   0.1000000  -0.1000000), wk =   0.0320000
        k(   13) = (   0.1000000  -0.1000000  -0.1000000), wk =   0.0320000
        k(   14) = (  -0.1000000  -0.1000000   0.3000000), wk =   0.0320000
        k(   15) = (  -0.1000000   0.1000000  -0.3000000), wk =   0.0320000
        k(   16) = (   0.1000000  -0.1000000  -0.3000000), wk =   0.0320000
        k(   17) = (   0.3000000  -0.1000000   0.1000000), wk =   0.0320000
        k(   18) = (  -0.3000000  -0.1000000  -0.1000000), wk =   0.0320000
        k(   19) = (   0.3000000   0.1000000  -0.1000000), wk =   0.0320000
        k(   20) = (  -0.3000000   0.1000000   0.1000000), wk =   0.0320000
        k(   21) = (  -0.1000000   0.3000000   0.1000000), wk =   0.0320000
        k(   22) = (  -0.1000000  -0.3000000  -0.1000000), wk =   0.0320000
        k(   23) = (   0.1000000   0.3000000  -0.1000000), wk =   0.0320000
        k(   24) = (   0.1000000  -0.3000000   0.1000000), wk =   0.0320000
        k(   25) = (  -0.1000000   0.1000000   0.5000000), wk =   0.0320000
        k(   26) = (  -0.5000000  -0.1000000   0.1000000), wk =   0.0320000
        k(   27) = (   0.5000000  -0.1000000  -0.1000000), wk =   0.0320000
        k(   28) = (  -0.1000000  -0.5000000   0.1000000), wk =   0.0320000
        k(   29) = (  -0.1000000   0.5000000  -0.1000000), wk =   0.0320000
        k(   30) = (  -0.1000000  -0.3000000   0.3000000), wk =   0.0320000
        k(   31) = (  -0.1000000   0.3000000  -0.3000000), wk =   0.0320000
        k(   32) = (   0.1000000  -0.3000000  -0.3000000), wk =   0.0320000
        k(   33) = (   0.3000000   0.1000000  -0.3000000), wk =   0.0320000
        k(   34) = (  -0.3000000  -0.1000000  -0.3000000), wk =   0.0320000
        k(   35) = (   0.3000000  -0.1000000   0.3000000), wk =   0.0320000
        k(   36) = (  -0.3000000   0.1000000   0.3000000), wk =   0.0320000
        k(   37) = (   0.3000000  -0.3000000   0.1000000), wk =   0.0320000
        k(   38) = (  -0.3000000  -0.3000000  -0.1000000), wk =   0.0320000
        k(   39) = (   0.3000000   0.3000000  -0.1000000), wk =   0.0320000
        k(   40) = (  -0.3000000   0.3000000   0.1000000), wk =   0.0320000
        k(   41) = (  -0.1000000   0.3000000   0.5000000), wk =   0.0320000
        k(   42) = (   0.3000000   0.1000000   0.5000000), wk =   0.0320000
        k(   43) = (   0.3000000  -0.1000000  -0.5000000), wk =   0.0320000
        k(   44) = (  -0.5000000  -0.3000000   0.1000000), wk =   0.0320000
        k(   45) = (   0.5000000  -0.3000000  -0.1000000), wk =   0.0320000
        k(   46) = (  -0.1000000  -0.5000000   0.3000000), wk =   0.0320000
        k(   47) = (  -0.1000000   0.5000000  -0.3000000), wk =   0.0320000
        k(   48) = (   0.3000000  -0.5000000   0.1000000), wk =   0.0320000
        k(   49) = (   0.3000000   0.5000000  -0.1000000), wk =   0.0320000
        k(   50) = (  -0.5000000   0.1000000   0.3000000), wk =   0.0320000
        k(   51) = (   0.5000000  -0.1000000   0.3000000), wk =   0.0320000
        k(   52) = (  -0.5000000   0.1000000   0.5000000), wk =   0.0320000
        k(   53) = (  -0.5000000   0.5000000   0.1000000), wk =   0.0320000
        k(   54) = (  -0.3000000  -0.3000000   0.3000000), wk =   0.0320000
        k(   55) = (  -0.3000000   0.3000000  -0.3000000), wk =   0.0320000
        k(   56) = (   0.3000000  -0.3000000  -0.3000000), wk =   0.0320000
        k(   57) = (  -0.3000000   0.3000000   0.5000000), wk =   0.0320000
        k(   58) = (  -0.5000000  -0.3000000   0.3000000), wk =   0.0320000
        k(   59) = (   0.5000000  -0.3000000  -0.3000000), wk =   0.0320000
        k(   60) = (  -0.3000000  -0.5000000   0.3000000), wk =   0.0320000
        k(   61) = (  -0.3000000   0.5000000  -0.3000000), wk =   0.0320000
        k(   62) = (  -0.5000000   0.3000000   0.5000000), wk =   0.0320000
        k(   63) = (  -0.5000000   0.5000000   0.3000000), wk =   0.0320000

     Dense  grid:    64589 G-vectors     FFT dimensions: (  50,  50,  50)

     Smooth grid:    63989 G-vectors     FFT dimensions: (  50,  50,  50)

     Estimated max dynamical RAM per process >      33.64 MB

     Estimated total dynamical RAM >     672.79 MB

     Initial potential from superposition of free atoms

     starting charge   95.92671, renormalised to   96.00000
     Starting wfcs are  128 randomized atomic wfcs
     Checking if some PAW data can be deallocated... 

     total cpu time spent up to now is        6.2 secs

     Self-consistent Calculation

     iteration #  1     ecut=    26.00 Ry     beta= 0.10
     Davidson diagonalization with overlap
     ethr =  1.00E-02,  avg # of iterations =  3.0

     Threshold (ethr) on eigenvalues was too large:
     Diagonalizing with lowered threshold

     Davidson diagonalization with overlap
     ethr =  1.91E-04,  avg # of iterations =  3.9

     total cpu time spent up to now is       26.4 secs

     total energy              =   -1264.12679060 Ry
     Harris-Foulkes estimate   =   -1264.13305350 Ry
     estimated scf accuracy    <       0.17935674 Ry

     iteration #  2     ecut=    26.00 Ry     beta= 0.10
     Davidson diagonalization with overlap
     ethr =  1.87E-04,  avg # of iterations =  1.0

     total cpu time spent up to now is       32.4 secs

     total energy              =   -1264.07934172 Ry
     Harris-Foulkes estimate   =   -1264.12756494 Ry
     estimated scf accuracy    <       0.15563442 Ry

     iteration #  3     ecut=    26.00 Ry     beta= 0.10
     Davidson diagonalization with overlap
     ethr =  1.62E-04,  avg # of iterations =  1.0

     total cpu time spent up to now is       38.3 secs

     total energy              =   -1264.08217814 Ry
     Harris-Foulkes estimate   =   -1264.08233151 Ry
     estimated scf accuracy    <       0.00059971 Ry

     iteration #  4     ecut=    26.00 Ry     beta= 0.10
     Davidson diagonalization with overlap
     ethr =  6.25E-07,  avg # of iterations =  6.0

     total cpu time spent up to now is       52.3 secs

     total energy              =   -1264.08278873 Ry
     Harris-Foulkes estimate   =   -1264.08294221 Ry
     estimated scf accuracy    <       0.00037138 Ry

     iteration #  5     ecut=    26.00 Ry     beta= 0.10
     Davidson diagonalization with overlap
     ethr =  3.87E-07,  avg # of iterations =  1.6

     total cpu time spent up to now is       58.5 secs

     total energy              =   -1264.08258898 Ry
     Harris-Foulkes estimate   =   -1264.08280005 Ry
     estimated scf accuracy    <       0.00023641 Ry

     iteration #  6     ecut=    26.00 Ry     beta= 0.10
     Davidson diagonalization with overlap
     ethr =  2.46E-07,  avg # of iterations =  2.7

     total cpu time spent up to now is       67.8 secs

     total energy              =   -1264.08265247 Ry
     Harris-Foulkes estimate   =   -1264.08265090 Ry
     estimated scf accuracy    <       0.00001052 Ry

     iteration #  7     ecut=    26.00 Ry     beta= 0.10
     Davidson diagonalization with overlap
     ethr =  1.10E-08,  avg # of iterations =  4.3

     total cpu time spent up to now is       76.7 secs

     total energy              =   -1264.08264636 Ry
     Harris-Foulkes estimate   =   -1264.08265337 Ry
     estimated scf accuracy    <       0.00000550 Ry

     iteration #  8     ecut=    26.00 Ry     beta= 0.10
     Davidson diagonalization with overlap
     ethr =  5.73E-09,  avg # of iterations =  2.4

     total cpu time spent up to now is       84.7 secs

     End of self-consistent calculation

          k = 0.1000 0.1000 0.1000 (  7986 PWs)   bands (ev):

    -3.1645  -1.3651  -1.3627  -1.3598  -0.4729  -0.4705  -0.4677   0.4146
     0.4170   0.4198   1.2954   1.2957   1.2984   1.2990   1.3003   1.3016
     2.1715   2.1738   2.1750   2.1770   3.0372   3.0379   3.0387   3.9330
     3.9338   3.9345   4.6182   4.6188   4.6194   4.7881   6.2952   6.2955
     6.2986   6.2992   6.3005   6.3016   6.8023   6.8029   6.8036   7.1402
     7.1407   7.1427   7.1440   7.1452   7.1458   7.9952   7.9976   8.0005
     8.4428   8.4434   8.4452   8.4461   8.4479   8.4495   8.8357   8.8363
     8.8374   8.8387

          k = 0.1000 0.1000 0.3000 (  7974 PWs)   bands (ev):

    -2.9833  -2.0806  -1.1841  -1.1830  -0.2943  -0.2934  -0.2919  -0.2896
     0.5913   0.5923   0.5934   0.5961   1.4724   1.4743   1.4763   2.3459
     2.3469   2.3478   2.3491   2.3515   3.1917   3.2100   3.2159   3.2170
     4.1061   4.7875   4.7880   4.9077   4.9088   4.9582   4.9589   5.6300
     5.6305   5.7473   5.7485   5.8154   6.4911   6.4923   6.6332   6.9736
     6.9742   7.3206   7.3217   7.3252   7.3264   7.4809   7.4817   7.7589
     7.7598   8.1647   8.1654   8.2338   8.2339   8.3270   8.5435   8.7165
     8.7172   9.4680

          k = 0.1000 0.1000-0.5000 (  7978 PWs)   bands (ev):

    -2.6228  -2.6202  -0.8282  -0.8275  -0.8257  -0.8241   0.0608   0.0615
     0.0632   0.0648   0.9456   0.9483   1.8171   1.8184   1.8233   1.8240
     1.8260   1.8267   2.6952   2.6979   3.5556   3.5568   3.5569   3.5580
     4.4151   4.4163   4.4164   4.4175   5.1237   5.1241   5.1263   5.1270
     5.2947   5.2960   6.1487   6.1492   6.1500   6.1509   6.8190   6.8196
     6.8215   6.8232   7.0009   7.0022   7.3087   7.3093   7.3113   7.3122
     7.6582   7.6587   7.6606   7.6623   9.0739   9.0746   9.0762   9.0779
     9.3504   9.3518

          k = 0.1000 0.3000 0.3000 (  7962 PWs)   bands (ev):

    -2.8023  -1.9023  -1.8991  -1.0055  -1.0041  -0.1167  -0.1150  -0.1121
     0.7665   0.7681   0.7687   0.7710   0.7737   1.6469   1.6479   1.6507
     2.5201   2.5233   3.3638   3.3650   3.3804   3.3816   3.3873   3.3903
     4.2232   4.2264   4.2490   4.2787   4.2799   4.9565   5.0669   5.0681
     5.7915   5.7950   5.9513   5.9545   5.9614   5.9625   5.9846   6.6530
     6.7673   6.7694   6.8007   6.8039   6.8376   7.1395   8.0695   8.0719
     8.3162   8.3198   8.4925   8.4942   8.7062   8.7076   8.9135   9.1694
     9.1713   9.3278

          k = 0.1000 0.3000-0.5000 (  7974 PWs)   bands (ev):

    -2.4423  -2.4397  -1.5430  -1.5404  -0.6494  -0.6467   0.2365   0.2395
     0.2414   0.2427   1.1184   1.1215   1.1229   1.1243   1.9922   1.9934
     2.8632   2.8644   2.8679   2.8704   3.7079   3.7106   3.7235   3.7258
     3.7281   3.7295   4.5759   4.5770   4.6186   4.6198   5.2917   5.2945
     5.4278   5.4289   5.4523   5.4548   5.4658   5.4671   6.1559   6.1586
     6.2909   6.2936   7.1687   7.1700   7.4146   7.4168   8.0168   8.0181
     8.0801   8.0811   8.4006   8.4032   8.6628   8.6657   9.0014   9.0038
     9.5478   9.5494

          k = 0.1000-0.5000-0.5000 (  7944 PWs)   bands (ev):

    -2.0829  -2.0818  -2.0795  -2.0780  -0.2944  -0.2934  -0.2910  -0.2896
     0.5913   0.5923   0.5947   0.5962   2.3380   2.3395   2.3401   2.3411
     2.3419   2.3441   2.3451   2.3457   4.0588   4.0603   4.0610   4.0621
     4.0626   4.0650   4.0659   4.0667   4.9595   4.9609   4.9615   4.9624
     4.9635   4.9654   4.9665   4.9671   5.6222   5.6233   5.6259   5.6274
     6.6149   6.6154   6.6168   6.6175   7.9087   7.9095   7.9114   7.9126
     8.3453   8.3459   8.3471   8.3479   9.1894   9.1900   9.1913   9.1921
     9.8225   9.8254

          k = 0.3000 0.3000 0.3000 (  7997 PWs)   bands (ev):

    -2.6215  -1.7236  -1.7213  -1.7184  -0.8288  -0.8264  -0.8236   0.0631
     0.9423   0.9447   0.9476   1.8201   1.8204   1.8231   1.8238   1.8250
     1.8264   2.6945   2.6952   2.6960   3.5362   3.5369   3.5377   4.3919
     4.3922   4.3950   4.3956   4.3969   4.3982   4.4072   4.4096   4.4125
     5.2803   5.2827   5.2856   5.2993   5.3001   5.3009   6.9595   6.9600
     6.9615   6.9630   6.9641   6.9647   7.8135   7.8140   7.8155   7.8169
     7.8181   7.8186   7.8546   8.8312   8.8323   8.8335   9.5350   9.5355
     9.5360   9.7493

          k = 0.3000 0.3000-0.5000 (  7950 PWs)   bands (ev):

    -2.2620  -2.2594  -1.3643  -1.3636  -1.3618  -1.3602  -0.4712  -0.4685
     1.2950   1.2957   1.2975   1.2991   2.1666   2.1679   2.1713   2.1720
     2.1740   2.1748   3.0362   3.0374   3.0375   3.0386   3.8795   3.8800
     3.8820   3.8829   3.8908   3.8918   4.7245   4.7252   4.7269   4.7286
     4.7947   4.7972   5.6432   5.6444   5.6445   5.6456   6.4870   6.4875
     6.4882   6.4892   7.3042   7.3048   7.3066   7.3082   8.1140   8.1147
     8.1152   8.1162   8.9862   8.9875   8.9877   8.9888   9.0281   9.0296
     9.2738   9.2745

          k = 0.3000-0.5000-0.5000 (  7960 PWs)   bands (ev):

    -1.9030  -1.9020  -1.8996  -1.8982  -1.0071  -1.0060  -1.0037  -1.0022
     1.6456   1.6467   1.6491   1.6505   2.5122   2.5137   2.5144   2.5153
     2.5162   2.5183   2.5193   2.5200   3.3789   3.3804   3.3811   3.3821
     3.3828   3.3851   3.3861   3.3867   4.2210   4.2221   4.2246   4.2261
     5.9723   5.9738   5.9744   5.9754   5.9764   5.9785   5.9796   5.9802
     6.8110   6.8116   6.8128   6.8136   7.6669   7.6675   7.6687   7.6694
     8.4718   8.4735   8.4742   8.4753   8.4763   8.4785   8.4796   8.4805
     9.5964   9.5989

          k =-0.5000-0.5000-0.5000 (  8024 PWs)   bands (ev):

    -1.5464  -1.5457  -1.5428  -1.5423  -1.5413  -1.5393  -1.5390  -1.5363
     2.8561   2.8564   2.8578   2.8584   2.8596   2.8606   2.8608   2.8618
     2.8621   2.8627   2.8630   2.8635   2.8640   2.8644   2.8649   2.8650
     2.8659   2.8669   2.8673   2.8677   2.8686   2.8700   2.8715   2.8736
     7.1496   7.1505   7.1513   7.1518   7.1530   7.1536   7.1541   7.1543
     7.1544   7.1551   7.1563   7.1568   7.1575   7.1577   7.1579   7.1587
     7.1591   7.1598   7.1601   7.1604   7.1613   7.1620   7.1638   7.1639
    11.3555  11.3575

          k =-0.1000-0.1000 0.1000 (  7986 PWs)   bands (ev):

    -3.1645  -1.3645  -1.3627  -1.3604  -0.4724  -0.4706  -0.4682   0.4151
     0.4169   0.4193   1.2944   1.2973   1.2976   1.2989   1.3003   1.3018
     2.1721   2.1739   2.1749   2.1764   3.0375   3.0379   3.0384   3.9333
     3.9338   3.9342   4.6184   4.6188   4.6192   4.7881   6.2942   6.2973
     6.2980   6.2987   6.3005   6.3019   6.8025   6.8029   6.8033   7.1402
     7.1420   7.1428   7.1435   7.1445   7.1457   7.9957   7.9976   8.0000
     8.4426   8.4438   8.4452   8.4466   8.4476   8.4492   8.8361   8.8364
     8.8379   8.8384

          k =-0.1000 0.1000-0.1000 (  7986 PWs)   bands (ev):

    -3.1645  -1.3650  -1.3626  -1.3601  -0.4729  -0.4704  -0.4679   0.4146
     0.4171   0.4196   1.2954   1.2960   1.2972   1.2984   1.3008   1.3025
     2.1716   2.1741   2.1749   2.1767   3.0371   3.0379   3.0387   3.9329
     3.9338   3.9346   4.6182   4.6188   4.6195   4.7881   6.2955   6.2960
     6.2971   6.2984   6.3010   6.3025   6.8022   6.8029   6.8036   7.1405
     7.1413   7.1420   7.1440   7.1451   7.1459   7.9953   7.9978   8.0003
     8.4426   8.4436   8.4450   8.4465   8.4479   8.4494   8.8351   8.8358
     8.8373   8.8388

          k = 0.1000-0.1000-0.1000 (  7986 PWs)   bands (ev):

    -3.1645  -1.3647  -1.3632  -1.3598  -0.4725  -0.4710  -0.4676   0.4150
     0.4165   0.4199   1.2952   1.2962   1.2977   1.2988   1.3001   1.3024
     2.1719   2.1734   2.1749   2.1770   3.0370   3.0379   3.0388   3.9329
     3.9338   3.9347   4.6181   4.6188   4.6196   4.7881   6.2951   6.2963
     6.2976   6.2988   6.3000   6.3027   6.8021   6.8029   6.8037   7.1400
     7.1416   7.1421   7.1441   7.1445   7.1463   7.9956   7.9972   8.0006
     8.4431   8.4434   8.4447   8.4463   8.4476   8.4498   8.8343   8.8365
     8.8375   8.8390

          k =-0.1000-0.1000 0.3000 (  7974 PWs)   bands (ev):

    -2.9833  -2.0806  -1.1842  -1.1830  -0.2942  -0.2934  -0.2914  -0.2902
     0.5909   0.5927   0.5939   0.5956   1.4724   1.4741   1.4766   2.3459
     2.3464   2.3481   2.3492   2.3515   3.1917   3.2097   3.2158   3.2172
     4.1061   4.7875   4.7881   4.9077   4.9089   4.9582   4.9589   5.6300
     5.6306   5.7473   5.7485   5.8154   6.4912   6.4923   6.6332   6.9736
     6.9742   7.3206   7.3214   7.3252   7.3267   7.4809   7.4817   7.7589
     7.7598   8.1647   8.1654   8.2338   8.2339   8.3270   8.5435   8.7165
     8.7172   9.4677

          k =-0.1000 0.1000-0.3000 (  7974 PWs)   bands (ev):

    -2.9833  -2.0806  -1.1846  -1.1826  -0.2947  -0.2922  -0.2919  -0.2905
     0.5905   0.5923   0.5944   0.5958   1.4728   1.4744   1.4758   2.3457
     2.3466   2.3480   2.3499   2.3511   3.1917   3.2096   3.2153   3.2178
     4.1061   4.7872   4.7883   4.9072   4.9093   4.9579   4.9593   5.6297
     5.6308   5.7468   5.7489   5.8154   6.4907   6.4927   6.6332   6.9733
     6.9745   7.3209   7.3220   7.3245   7.3265   7.4804   7.4821   7.7584
     7.7603   8.1644   8.1656   8.2338   8.2339   8.3270   8.5434   8.7163
     8.7175   9.4670

          k = 0.1000-0.1000-0.3000 (  7974 PWs)   bands (ev):

    -2.9833  -2.0806  -1.1846  -1.1826  -0.2944  -0.2941  -0.2916  -0.2891
     0.5914   0.5928   0.5938   0.5949   1.4721   1.4737   1.4772   2.3462
     2.3464   2.3480   2.3490   2.3516   3.1917   3.2101   3.2153   3.2174
     4.1061   4.7872   4.7883   4.9072   4.9093   4.9579   4.9593   5.6297
     5.6309   5.7468   5.7489   5.8154   6.4907   6.4927   6.6332   6.9733
     6.9745   7.3196   7.3218   7.3257   7.3267   7.4804   7.4821   7.7584
     7.7603   8.1644   8.1656   8.2338   8.2339   8.3270   8.5435   8.7163
     8.7175   9.4673

          k = 0.3000-0.1000 0.1000 (  7974 PWs)   bands (ev):

    -2.9833  -2.0806  -1.1847  -1.1825  -0.2937  -0.2932  -0.2926  -0.2897
     0.5897   0.5936   0.5944   0.5953   1.4731   1.4744   1.4756   2.3455
     2.3467   2.3478   2.3502   2.3510   3.1917   3.2093   3.2158   3.2176
     4.1061   4.7875   4.7880   4.9071   4.9094   4.9583   4.9589   5.6300
     5.6305   5.7467   5.7490   5.8154   6.4906   6.4928   6.6333   6.9737
     6.9742   7.3208   7.3221   7.3245   7.3265   7.4809   7.4816   7.7589
     7.7598   8.1644   8.1656   8.2339   8.2339   8.3270   8.5434   8.7162
     8.7176   9.4681

          k =-0.3000-0.1000-0.1000 (  7974 PWs)   bands (ev):

    -2.9833  -2.0806  -1.1852  -1.1820  -0.2948  -0.2930  -0.2922  -0.2893
     0.5897   0.5922   0.5947   0.5964   1.4731   1.4745   1.4754   2.3447
     2.3465   2.3489   2.3499   2.3511   3.1917   3.2092   3.2152   3.2184
     4.1061   4.7873   4.7882   4.9066   4.9100   4.9580   4.9592   5.6298
     5.6308   5.7462   5.7495   5.8154   6.4901   6.4933   6.6333   6.9734
     6.9744   7.3205   7.3225   7.3240   7.3269   7.4806   7.4820   7.7585
     7.7602   8.1641   8.1660   8.2338   8.2339   8.3270   8.5434   8.7159
     8.7179   9.4663

          k = 0.3000 0.1000-0.1000 (  7974 PWs)   bands (ev):

    -2.9833  -2.0806  -1.1847  -1.1825  -0.2941  -0.2930  -0.2919  -0.2902
     0.5904   0.5933   0.5939   0.5953   1.4730   1.4744   1.4757   2.3456
     2.3471   2.3482   2.3494   2.3509   3.1917   3.2096   3.2157   3.2176
     4.1061   4.7875   4.7880   4.9071   4.9094   4.9583   4.9589   5.6300
     5.6305   5.7467   5.7490   5.8154   6.4906   6.4928   6.6333   6.9737
     6.9742   7.3209   7.3219   7.3246   7.3265   7.4809   7.4816   7.7589
     7.7598   8.1643   8.1657   8.2338   8.2339   8.3270   8.5434   8.7162
     8.7176   9.4684

          k =-0.3000 0.1000 0.1000 (  7974 PWs)   bands (ev):

    -2.9833  -2.0806  -1.1852  -1.1820  -0.2945  -0.2936  -0.2920  -0.2891
     0.5906   0.5921   0.5939   0.5964   1.4729   1.4739   1.4762   2.3450
     2.3471   2.3485   2.3490   2.3515   3.1917   3.2097   3.2149   3.2182
     4.1061   4.7873   4.7883   4.9066   4.9099   4.9580   4.9592   5.6298
     5.6308   5.7462   5.7495   5.8154   6.4901   6.4933   6.6333   6.9734
     6.9744   7.3199   7.3226   7.3245   7.3269   7.4806   7.4820   7.7585
     7.7602   8.1641   8.1660   8.2338   8.2339   8.3270   8.5434   8.7159
     8.7179   9.4667

          k =-0.1000 0.3000 0.1000 (  7974 PWs)   bands (ev):

    -2.9833  -2.0806  -1.1853  -1.1819  -0.2951  -0.2929  -0.2929  -0.2883
     0.5906   0.5920   0.5946   0.5958   1.4721   1.4741   1.4769   2.3444
     2.3471   2.3487   2.3497   2.3513   3.1917   3.2098   3.2148   3.2181
     4.1061   4.7877   4.7878   4.9064   4.9101   4.9585   4.9586   5.6303
     5.6303   5.7461   5.7497   5.8154   6.4900   6.4934   6.6332   6.9739
     6.9740   7.3201   7.3212   7.3251   7.3275   7.4812   7.4813   7.7593
     7.7594   8.1640   8.1661   8.2338   8.2339   8.3270   8.5435   8.7158
     8.7179   9.4661

          k =-0.1000-0.3000-0.1000 (  7974 PWs)   bands (ev):

    -2.9833  -2.0806  -1.1856  -1.1816  -0.2953  -0.2937  -0.2923  -0.2879
     0.5901   0.5927   0.5943   0.5959   1.4721   1.4743   1.4766   2.3449
     2.3464   2.3486   2.3500   2.3512   3.1917   3.2097   3.2147   3.2184
     4.1061   4.7875   4.7880   4.9061   4.9104   4.9582   4.9589   5.6300
     5.6306   5.7457   5.7500   5.8154   6.4897   6.4937   6.6332   6.9737
     6.9742   7.3199   7.3219   7.3240   7.3281   7.4809   7.4817   7.7589
     7.7598   8.1638   8.1662   8.2338   8.2339   8.3270   8.5434   8.7157
     8.7181   9.4658

          k = 0.1000 0.3000-0.1000 (  7974 PWs)   bands (ev):

    -2.9833  -2.0806  -1.1853  -1.1819  -0.2951  -0.2932  -0.2912  -0.2897
     0.5904   0.5925   0.5940   0.5961   1.4729   1.4741   1.4761   2.3449
     2.3471   2.3484   2.3494   2.3513   3.1917   3.2095   3.2148   3.2185
     4.1061   4.7877   4.7878   4.9064   4.9101   4.9585   4.9586   5.6303
     5.6303   5.7461   5.7497   5.8154   6.4900   6.4934   6.6333   6.9739
     6.9740   7.3203   7.3222   7.3242   7.3273   7.4812   7.4813   7.7593
     7.7594   8.1640   8.1660   8.2338   8.2339   8.3270   8.5434   8.7158
     8.7179   9.4670

          k = 0.1000-0.3000 0.1000 (  7974 PWs)   bands (ev):

    -2.9833  -2.0806  -1.1856  -1.1816  -0.2958  -0.2931  -0.2911  -0.2891
     0.5898   0.5926   0.5940   0.5965   1.4726   1.4741   1.4763   2.3448
     2.3464   2.3484   2.3498   2.3517   3.1917   3.2095   3.2148   3.2185
     4.1061   4.7875   4.7880   4.9061   4.9104   4.9582   4.9589   5.6300
     5.6305   5.7457   5.7500   5.8154   6.4897   6.4937   6.6333   6.9737
     6.9742   7.3199   7.3223   7.3241   7.3276   7.4809   7.4817   7.7589
     7.7598   8.1638   8.1662   8.2338   8.2339   8.3270   8.5434   8.7157
     8.7181   9.4658

          k =-0.1000 0.1000 0.5000 (  7978 PWs)   bands (ev):

    -2.6228  -2.6202  -0.8288  -0.8268  -0.8261  -0.8238   0.0602   0.0621
     0.0628   0.0652   0.9456   0.9483   1.8168   1.8182   1.8232   1.8244
     1.8257   1.8271   2.6952   2.6979   3.5552   3.5564   3.5572   3.5585
     4.4147   4.4159   4.4168   4.4180   5.1233   5.1245   5.1261   5.1272
     5.2947   5.2960   6.1482   6.1494   6.1500   6.1511   6.8183   6.8203
     6.8211   6.8235   7.0009   7.0022   7.3084   7.3097   7.3111   7.3124
     7.6579   7.6591   7.6606   7.6621   9.0737   9.0748   9.0762   9.0778
     9.3500   9.3513

          k =-0.5000-0.1000 0.1000 (  7978 PWs)   bands (ev):

    -2.6229  -2.6201  -0.8294  -0.8266  -0.8255  -0.8239   0.0595   0.0623
     0.0634   0.0650   0.9455   0.9484   1.8170   1.8181   1.8234   1.8239
     1.8259   1.8271   2.6951   2.6980   3.5550   3.5564   3.5573   3.5586
     4.4145   4.4159   4.4168   4.4181   5.1237   5.1239   5.1262   5.1274
     5.2947   5.2961   6.1485   6.1492   6.1496   6.1513   6.8177   6.8205
     6.8217   6.8234   7.0008   7.0022   7.3087   7.3092   7.3111   7.3125
     7.6574   7.6592   7.6610   7.6621   9.0732   9.0749   9.0766   9.0778
     9.3503   9.3518

          k = 0.5000-0.1000-0.1000 (  7978 PWs)   bands (ev):

    -2.6229  -2.6201  -0.8297  -0.8264  -0.8258  -0.8236   0.0593   0.0626
     0.0631   0.0654   0.9455   0.9484   1.8171   1.8179   1.8229   1.8244
     1.8261   1.8270   2.6951   2.6980   3.5545   3.5559   3.5579   3.5590
     4.4140   4.4154   4.4174   4.4186   5.1233   5.1243   5.1263   5.1272
     5.2947   5.2961   6.1482   6.1494   6.1500   6.1510   6.8175   6.8208
     6.8212   6.8237   7.0008   7.0022   7.3083   7.3095   7.3113   7.3124
     7.6576   7.6591   7.6602   7.6628   9.0734   9.0748   9.0759   9.0785
     9.3504   9.3510

          k =-0.1000-0.5000 0.1000 (  7978 PWs)   bands (ev):

    -2.6219  -2.6212  -0.8285  -0.8279  -0.8254  -0.8237   0.0605   0.0610
     0.0635   0.0653   0.9466   0.9473   1.8172   1.8179   1.8245   1.8247
     1.8253   1.8258   2.6962   2.6969   3.5550   3.5551   3.5583   3.5589
     4.4145   4.4146   4.4179   4.4184   5.1249   5.1249   5.1256   5.1257
     5.2952   5.2956   6.1494   6.1495   6.1498   6.1500   6.8188   6.8192
     6.8218   6.8235   7.0013   7.0017   7.3100   7.3101   7.3107   7.3108
     7.6582   7.6595   7.6607   7.6613   9.0740   9.0752   9.0764   9.0770
     9.3512   9.3515

          k =-0.1000 0.5000-0.1000 (  7978 PWs)   bands (ev):

    -2.6219  -2.6212  -0.8287  -0.8281  -0.8248  -0.8238   0.0602   0.0608
     0.0641   0.0652   0.9466   0.9473   1.8172   1.8177   1.8246   1.8249
     1.8251   1.8260   2.6962   2.6969   3.5546   3.5549   3.5587   3.5591
     4.4141   4.4144   4.4183   4.4186   5.1249   5.1249   5.1251   5.1261
     5.2952   5.2956   6.1491   6.1494   6.1495   6.1506   6.8184   6.8191
     6.8223   6.8234   7.0013   7.0017   7.3100   7.3101   7.3102   7.3113
     7.6584   7.6591   7.6606   7.6616   9.0742   9.0748   9.0762   9.0772
     9.3510   9.3516

          k =-0.1000-0.3000 0.3000 (  7962 PWs)   bands (ev):

    -2.8023  -1.9018  -1.8996  -1.0055  -1.0042  -0.1174  -0.1139  -0.1124
     0.7669   0.7679   0.7687   0.7716   0.7729   1.6471   1.6481   1.6503
     2.5206   2.5228   3.3641   3.3647   3.3806   3.3810   3.3877   3.3901
     4.2237   4.2260   4.2490   4.2790   4.2796   4.9565   5.0672   5.0678
     5.7920   5.7944   5.9517   5.9538   5.9617   5.9624   5.9846   6.6530
     6.7677   6.7691   6.8011   6.8034   6.8376   7.1395   8.0699   8.0715
     8.3167   8.3192   8.4928   8.4940   8.7066   8.7073   8.9135   9.1699
     9.1709   9.3278

          k =-0.1000 0.3000-0.3000 (  7962 PWs)   bands (ev):

    -2.8023  -1.9018  -1.8996  -1.0050  -1.0047  -0.1170  -0.1140  -0.1127
     0.7671   0.7679   0.7694   0.7708   0.7727   1.6470   1.6481   1.6504
     2.5206   2.5228   3.3642   3.3648   3.3805   3.3813   3.3876   3.3899
     4.2237   4.2260   4.2490   4.2790   4.2796   4.9565   5.0672   5.0678
     5.7920   5.7944   5.9517   5.9540   5.9616   5.9623   5.9846   6.6530
     6.7677   6.7691   6.8011   6.8034   6.8376   7.1395   8.0699   8.0715
     8.3167   8.3192   8.4928   8.4940   8.7066   8.7073   8.9135   9.1699
     9.1709   9.3278

          k = 0.1000-0.3000-0.3000 (  7962 PWs)   bands (ev):

    -2.8023  -1.9023  -1.8991  -1.0059  -1.0038  -0.1175  -0.1146  -0.1116
     0.7665   0.7670   0.7691   0.7719   0.7735   1.6471   1.6484   1.6501
     2.5201   2.5233   3.3638   3.3650   3.3802   3.3814   3.3874   3.3905
     4.2232   4.2264   4.2491   4.2787   4.2799   4.9565   5.0669   5.0681
     5.7915   5.7950   5.9511   5.9543   5.9615   5.9628   5.9846   6.6530
     6.7673   6.7694   6.8006   6.8039   6.8376   7.1395   8.0695   8.0719
     8.3162   8.3198   8.4925   8.4942   8.7062   8.7076   8.9135   9.1694
     9.1713   9.3278

          k = 0.3000 0.1000-0.3000 (  7962 PWs)   bands (ev):

    -2.8023  -1.9024  -1.8990  -1.0055  -1.0041  -0.1168  -0.1145  -0.1125
     0.7657   0.7682   0.7689   0.7716   0.7735   1.6463   1.6478   1.6514
     2.5199   2.5234   3.3644   3.3644   3.3809   3.3811   3.3871   3.3903
     4.2231   4.2266   4.2489   4.2792   4.2795   4.9565   5.0675   5.0676
     5.7913   5.7951   5.9512   5.9547   5.9618   5.9620   5.9846   6.6530
     6.7672   6.7694   6.8006   6.8041   6.8376   7.1395   8.0694   8.0719
     8.3160   8.3200   8.4925   8.4943   8.7069   8.7070   8.9135   9.1703
     9.1705   9.3278

          k =-0.3000-0.1000-0.3000 (  7962 PWs)   bands (ev):

    -2.8023  -1.9027  -1.8987  -1.0055  -1.0042  -0.1176  -0.1141  -0.1120
     0.7655   0.7674   0.7701   0.7714   0.7736   1.6467   1.6480   1.6509
     2.5196   2.5237   3.3641   3.3647   3.3804   3.3813   3.3869   3.3909
     4.2228   4.2269   4.2490   4.2790   4.2797   4.9565   5.0672   5.0678
     5.7910   5.7955   5.9509   5.9548   5.9616   5.9624   5.9846   6.6530
     6.7671   6.7696   6.8002   6.8044   6.8376   7.1395   8.0692   8.0722
     8.3157   8.3203   8.4923   8.4944   8.7065   8.7073   8.9135   9.1699
     9.1709   9.3278

          k = 0.3000-0.1000 0.3000 (  7962 PWs)   bands (ev):

    -2.8023  -1.9027  -1.8987  -1.0059  -1.0038  -0.1173  -0.1141  -0.1123
     0.7659   0.7676   0.7691   0.7715   0.7739   1.6463   1.6481   1.6512
     2.5196   2.5237   3.3641   3.3647   3.3807   3.3813   3.3868   3.3907
     4.2228   4.2269   4.2489   4.2791   4.2796   4.9565   5.0672   5.0678
     5.7910   5.7955   5.9509   5.9550   5.9616   5.9622   5.9846   6.6530
     6.7670   6.7696   6.8002   6.8044   6.8376   7.1395   8.0692   8.0722
     8.3157   8.3203   8.4924   8.4944   8.7065   8.7073   8.9135   9.1699
     9.1709   9.3278

          k =-0.3000 0.1000 0.3000 (  7962 PWs)   bands (ev):

    -2.8023  -1.9024  -1.8990  -1.0050  -1.0047  -0.1170  -0.1151  -0.1117
     0.7661   0.7682   0.7698   0.7705   0.7734   1.6470   1.6479   1.6507
     2.5199   2.5234   3.3644   3.3645   3.3806   3.3810   3.3871   3.3906
     4.2231   4.2266   4.2490   4.2792   4.2794   4.9565   5.0675   5.0676
     5.7913   5.7951   5.9511   5.9545   5.9618   5.9622   5.9845   6.6530
     6.7672   6.7695   6.8005   6.8041   6.8376   7.1395   8.0694   8.0720
     8.3160   8.3200   8.4925   8.4943   8.7069   8.7070   8.9134   9.1703
     9.1705   9.3278

          k = 0.3000-0.3000 0.1000 (  7962 PWs)   bands (ev):

    -2.8023  -1.9017  -1.8997  -1.0055  -1.0041  -0.1157  -0.1146  -0.1134
     0.7669   0.7674   0.7700   0.7709   0.7728   1.6463   1.6476   1.6517
     2.5207   2.5227   3.3638   3.3651   3.3805   3.3818   3.3875   3.3896
     4.2239   4.2258   4.2489   4.2786   4.2801   4.9565   5.0669   5.0682
     5.7921   5.7943   5.9520   5.9541   5.9611   5.9625   5.9846   6.6530
     6.7677   6.7690   6.8013   6.8034   6.8376   7.1395   8.0700   8.0714
     8.3168   8.3191   8.4929   8.4939   8.7061   8.7077   8.9135   9.1693
     9.1715   9.3278

          k =-0.3000-0.3000-0.1000 (  7962 PWs)   bands (ev):

    -2.8023  -1.9013  -1.9002  -1.0050  -1.0047  -0.1162  -0.1148  -0.1127
     0.7672   0.7675   0.7695   0.7709   0.7729   1.6465   1.6479   1.6511
     2.5211   2.5222   3.3641   3.3648   3.3806   3.3813   3.3882   3.3893
     4.2243   4.2254   4.2489   4.2790   4.2797   4.9565   5.0672   5.0679
     5.7926   5.7938   5.9524   5.9535   5.9616   5.9623   5.9846   6.6530
     6.7680   6.7687   6.8018   6.8029   6.8376   7.1395   8.0703   8.0711
     8.3173   8.3186   8.4931   8.4937   8.7065   8.7073   8.9135   9.1698
     9.1709   9.3278

          k = 0.3000 0.3000-0.1000 (  7962 PWs)   bands (ev):

    -2.8023  -1.9013  -1.9002  -1.0059  -1.0038  -0.1159  -0.1144  -0.1134
     0.7670   0.7676   0.7694   0.7708   0.7732   1.6465   1.6481   1.6509
     2.5211   2.5222   3.3640   3.3647   3.3808   3.3814   3.3881   3.3893
     4.2242   4.2254   4.2490   4.2790   4.2797   4.9565   5.0672   5.0678
     5.7926   5.7938   5.9525   5.9536   5.9615   5.9622   5.9846   6.6530
     6.7680   6.7687   6.8018   6.8029   6.8376   7.1395   8.0703   8.0711
     8.3173   8.3186   8.4931   8.4937   8.7065   8.7073   8.9135   9.1698
     9.1709   9.3278

          k =-0.3000 0.3000 0.1000 (  7962 PWs)   bands (ev):

    -2.8023  -1.9017  -1.8997  -1.0055  -1.0042  -0.1162  -0.1153  -0.1122
     0.7664   0.7685   0.7697   0.7703   0.7731   1.6468   1.6484   1.6504
     2.5207   2.5227   3.3637   3.3651   3.3802   3.3816   3.3878   3.3899
     4.2238   4.2258   4.2490   4.2786   4.2800   4.9565   5.0669   5.0682
     5.7921   5.7943   5.9519   5.9538   5.9613   5.9626   5.9846   6.6530
     6.7677   6.7690   6.8013   6.8033   6.8376   7.1395   8.0700   8.0714
     8.3169   8.3191   8.4929   8.4939   8.7061   8.7077   8.9134   9.1693
     9.1715   9.3278

          k =-0.1000 0.3000 0.5000 (  7974 PWs)   bands (ev):

    -2.4423  -2.4397  -1.5430  -1.5404  -0.6494  -0.6467   0.2367   0.2397
     0.2408   0.2430   1.1192   1.1209   1.1227   1.1244   1.9922   1.9934
     2.8633   2.8642   2.8680   2.8703   3.7079   3.7106   3.7236   3.7262
     3.7279   3.7290   4.5758   4.5769   4.6186   4.6199   5.2918   5.2945
     5.4278   5.4289   5.4524   5.4549   5.4657   5.4669   6.1559   6.1586
     6.2909   6.2936   7.1687   7.1700   7.4146   7.4168   8.0168   8.0181
     8.0800   8.0811   8.4006   8.4032   8.6629   8.6657   9.0014   9.0038
     9.5478   9.5494

          k = 0.3000 0.1000 0.5000 (  7974 PWs)   bands (ev):

    -2.4423  -2.4397  -1.5430  -1.5404  -0.6494  -0.6467   0.2378   0.2390
     0.2412   0.2422   1.1183   1.1212   1.1227   1.1250   1.9922   1.9934
     2.8634   2.8646   2.8676   2.8703   3.7080   3.7106   3.7234   3.7261
     3.7279   3.7293   4.5759   4.5770   4.6186   4.6198   5.2917   5.2945
     5.4277   5.4289   5.4523   5.4549   5.4658   5.4671   6.1560   6.1586
     6.2909   6.2936   7.1687   7.1700   7.4146   7.4168   8.0168   8.0181
     8.0800   8.0811   8.4006   8.4032   8.6629   8.6657   9.0014   9.0038
     9.5478   9.5494

          k = 0.3000-0.1000-0.5000 (  7974 PWs)   bands (ev):

    -2.4423  -2.4397  -1.5430  -1.5404  -0.6494  -0.6467   0.2369   0.2399
     0.2413   0.2421   1.1180   1.1211   1.1233   1.1248   1.9922   1.9934
     2.8632   2.8643   2.8678   2.8705   3.7079   3.7106   3.7235   3.7258
     3.7283   3.7293   4.5759   4.5770   4.6186   4.6198   5.2917   5.2945
     5.4278   5.4289   5.4523   5.4549   5.4658   5.4671   6.1560   6.1586
     6.2909   6.2936   7.1687   7.1700   7.4146   7.4168   8.0168   8.0181
     8.0801   8.0811   8.4006   8.4032   8.6629   8.6657   9.0014   9.0038
     9.5478   9.5494

          k =-0.5000-0.3000 0.1000 (  7974 PWs)   bands (ev):

    -2.4424  -2.4396  -1.5431  -1.5403  -0.6495  -0.6466   0.2381   0.2391
     0.2409   0.2420   1.1180   1.1208   1.1229   1.1255   1.9921   1.9935
     2.8630   2.8645   2.8678   2.8706   3.7078   3.7107   3.7235   3.7263
     3.7279   3.7292   4.5759   4.5771   4.6185   4.6198   5.2916   5.2946
     5.4277   5.4289   5.4523   5.4551   5.4657   5.4671   6.1558   6.1587
     6.2908   6.2937   7.1686   7.1701   7.4145   7.4169   8.0167   8.0182
     8.0800   8.0812   8.4005   8.4033   8.6627   8.6658   9.0013   9.0039
     9.5477   9.5495

          k = 0.5000-0.3000-0.1000 (  7974 PWs)   bands (ev):

    -2.4424  -2.4396  -1.5431  -1.5403  -0.6495  -0.6466   0.2376   0.2389
     0.2399   0.2437   1.1191   1.1210   1.1222   1.1249   1.9921   1.9935
     2.8633   2.8646   2.8676   2.8704   3.7078   3.7107   3.7234   3.7262
     3.7278   3.7294   4.5758   4.5770   4.6185   4.6199   5.2917   5.2946
     5.4278   5.4289   5.4523   5.4550   5.4656   5.4671   6.1558   6.1587
     6.2908   6.2937   7.1686   7.1701   7.4145   7.4169   8.0167   8.0182
     8.0800   8.0812   8.4005   8.4033   8.6627   8.6658   9.0013   9.0039
     9.5477   9.5495

          k =-0.1000-0.5000 0.3000 (  7974 PWs)   bands (ev):

    -2.4413  -2.4407  -1.5420  -1.5413  -0.6484  -0.6477   0.2377   0.2387
     0.2409   0.2429   1.1202   1.1206   1.1226   1.1238   1.9926   1.9930
     2.8636   2.8640   2.8689   2.8694   3.7089   3.7096   3.7243   3.7252
     3.7283   3.7290   4.5763   4.5766   4.6191   4.6194   5.2928   5.2935
     5.4282   5.4285   5.4533   5.4539   5.4661   5.4666   6.1569   6.1576
     6.2919   6.2926   7.1691   7.1695   7.4154   7.4160   8.0173   8.0176
     8.0804   8.0808   8.4016   8.4022   8.6639   8.6646   9.0023   9.0029
     9.5484   9.5489

          k =-0.1000 0.5000-0.3000 (  7974 PWs)   bands (ev):

    -2.4413  -2.4407  -1.5420  -1.5413  -0.6484  -0.6477   0.2387   0.2395
     0.2406   0.2414   1.1198   1.1209   1.1230   1.1234   1.9926   1.9930
     2.8638   2.8642   2.8686   2.8693   3.7089   3.7096   3.7246   3.7251
     3.7284   3.7287   4.5763   4.5766   4.6190   4.6194   5.2928   5.2935
     5.4282   5.4285   5.4533   5.4540   5.4661   5.4665   6.1569   6.1576
     6.2919   6.2926   7.1691   7.1695   7.4154   7.4160   8.0173   8.0177
     8.0804   8.0808   8.4016   8.4022   8.6639   8.6646   9.0023   9.0029
     9.5484   9.5489

          k = 0.3000-0.5000 0.1000 (  7974 PWs)   bands (ev):

    -2.4413  -2.4407  -1.5420  -1.5414  -0.6484  -0.6477   0.2387   0.2392
     0.2404   0.2418   1.1193   1.1201   1.1230   1.1248   1.9926   1.9930
     2.8636   2.8640   2.8687   2.8695   3.7089   3.7096   3.7242   3.7252
     3.7284   3.7290   4.5763   4.5766   4.6190   4.6194   5.2928   5.2935
     5.4282   5.4285   5.4532   5.4540   5.4662   5.4666   6.1569   6.1576
     6.2919   6.2926   7.1691   7.1695   7.4154   7.4160   8.0173   8.0177
     8.0804   8.0808   8.4016   8.4022   8.6639   8.6646   9.0023   9.0029
     9.5484   9.5488

          k = 0.3000 0.5000-0.1000 (  7974 PWs)   bands (ev):

    -2.4413  -2.4407  -1.5420  -1.5414  -0.6484  -0.6477   0.2383   0.2395
     0.2409   0.2414   1.1201   1.1209   1.1227   1.1234   1.9926   1.9930
     2.8637   2.8641   2.8686   2.8694   3.7089   3.7096   3.7246   3.7253
     3.7283   3.7286   4.5763   4.5766   4.6190   4.6194   5.2928   5.2935
     5.4282   5.4285   5.4533   5.4540   5.4661   5.4665   6.1569   6.1576
     6.2919   6.2926   7.1691   7.1695   7.4154   7.4160   8.0173   8.0176
     8.0804   8.0808   8.4016   8.4022   8.6639   8.6647   9.0023   9.0029
     9.5484   9.5489

          k =-0.5000 0.1000 0.3000 (  7974 PWs)   bands (ev):

    -2.4424  -2.4396  -1.5431  -1.5403  -0.6495  -0.6466   0.2364   0.2392
     0.2410   0.2435   1.1193   1.1213   1.1222   1.1243   1.9921   1.9935
     2.8633   2.8646   2.8676   2.8704   3.7078   3.7107   3.7233   3.7259
     3.7281   3.7295   4.5758   4.5770   4.6186   4.6199   5.2916   5.2946
     5.4278   5.4290   5.4522   5.4549   5.4657   5.4671   6.1558   6.1587
     6.2908   6.2937   7.1686   7.1701   7.4145   7.4169   8.0167   8.0182
     8.0800   8.0812   8.4005   8.4033   8.6627   8.6658   9.0013   9.0039
     9.5477   9.5495

          k = 0.5000-0.1000 0.3000 (  7974 PWs)   bands (ev):

    -2.4424  -2.4396  -1.5431  -1.5403  -0.6495  -0.6466   0.2377   0.2391
     0.2405   0.2429   1.1191   1.1206   1.1218   1.1257   1.9921   1.9935
     2.8633   2.8644   2.8677   2.8705   3.7078   3.7107   3.7234   3.7263
     3.7278   3.7292   4.5759   4.5770   4.6185   4.6199   5.2916   5.2946
     5.4277   5.4289   5.4523   5.4550   5.4657   5.4671   6.1558   6.1587
     6.2908   6.2937   7.1686   7.1701   7.4145   7.4169   8.0167   8.0182
     8.0800   8.0812   8.4005   8.4033   8.6627   8.6658   9.0013   9.0039
     9.5477   9.5495

          k =-0.5000 0.1000 0.5000 (  7944 PWs)   bands (ev):

    -2.0843  -2.0815  -2.0794  -2.0770  -0.2959  -0.2930  -0.2909  -0.2885
     0.5898   0.5927   0.5948   0.5972   2.3376   2.3383   2.3398   2.3421
     2.3430   2.3434   2.3446   2.3466   4.0585   4.0591   4.0607   4.0630
     4.0640   4.0642   4.0655   4.0674   4.9590   4.9599   4.9611   4.9635
     4.9643   4.9650   4.9660   4.9680   5.6206   5.6236   5.6260   5.6285
     6.6142   6.6154   6.6170   6.6180   7.9075   7.9100   7.9113   7.9135
     8.3446   8.3461   8.3472   8.3484   9.1887   9.1902   9.1913   9.1926
     9.8222   9.8259

          k =-0.5000 0.5000 0.1000 (  7944 PWs)   bands (ev):

    -2.0828  -2.0816  -2.0791  -2.0789  -0.2943  -0.2931  -0.2906  -0.2904
     0.5914   0.5926   0.5951   0.5953   2.3381   2.3395   2.3401   2.3415
     2.3422   2.3439   2.3448   2.3454   4.0590   4.0604   4.0608   4.0625
     4.0631   4.0646   4.0658   4.0663   4.9597   4.9609   4.9617   4.9628
     4.9637   4.9653   4.9659   4.9667   5.6223   5.6236   5.6263   5.6265
     6.6151   6.6157   6.6168   6.6170   7.9087   7.9097   7.9118   7.9120
     8.3454   8.3460   8.3474   8.3475   9.1895   9.1902   9.1915   9.1916
     9.8224   9.8257

          k =-0.3000-0.3000 0.3000 (  7997 PWs)   bands (ev):

    -2.6215  -1.7231  -1.7213  -1.7189  -0.8283  -0.8265  -0.8241   0.0631
     0.9428   0.9446   0.9470   1.8192   1.8220   1.8224   1.8236   1.8251
     1.8266   2.6948   2.6952   2.6957   3.5365   3.5369   3.5374   4.3909
     4.3938   4.3943   4.3954   4.3969   4.3985   4.4077   4.4095   4.4120
     5.2808   5.2826   5.2851   5.2996   5.3001   5.3006   6.9596   6.9610
     6.9618   6.9626   6.9634   6.9645   7.8137   7.8149   7.8158   7.8166
     7.8173   7.8185   7.8546   8.8317   8.8323   8.8330   9.5352   9.5355
     9.5358   9.7491

          k =-0.3000 0.3000-0.3000 (  7997 PWs)   bands (ev):

    -2.6215  -1.7236  -1.7211  -1.7186  -0.8288  -0.8263  -0.8238   0.0631
     0.9423   0.9448   0.9473   1.8202   1.8208   1.8220   1.8231   1.8256
     1.8272   2.6944   2.6952   2.6961   3.5361   3.5369   3.5377   4.3919
     4.3925   4.3938   4.3950   4.3975   4.3991   4.4072   4.4097   4.4123
     5.2803   5.2829   5.2854   5.2992   5.3001   5.3009   6.9596   6.9605
     6.9611   6.9631   6.9639   6.9647   7.8136   7.8144   7.8151   7.8171
     7.8178   7.8186   7.8546   8.8311   8.8323   8.8336   9.5349   9.5355
     9.5361   9.7488

          k = 0.3000-0.3000-0.3000 (  7997 PWs)   bands (ev):

    -2.6215  -1.7232  -1.7217  -1.7183  -0.8284  -0.8269  -0.8235   0.0631
     0.9427   0.9442   0.9476   1.8199   1.8209   1.8224   1.8235   1.8249
     1.8272   2.6943   2.6952   2.6961   3.5360   3.5369   3.5378   4.3917
     4.3927   4.3942   4.3954   4.3967   4.3991   4.4075   4.4091   4.4126
     5.2806   5.2822   5.2857   5.2991   5.3001   5.3010   6.9593   6.9606
     6.9612   6.9631   6.9635   6.9651   7.8132   7.8147   7.8153   7.8171
     7.8175   7.8189   7.8546   8.8310   8.8324   8.8337   9.5349   9.5355
     9.5361   9.7480

          k =-0.3000 0.3000 0.5000 (  7950 PWs)   bands (ev):

    -2.2620  -2.2594  -1.3649  -1.3629  -1.3623  -1.3599  -0.4712  -0.4685
     1.2944   1.2963   1.2970   1.2994   2.1663   2.1677   2.1713   2.1724
     2.1738   2.1751   3.0358   3.0370   3.0379   3.0391   3.8789   3.8805
     3.8818   3.8830   3.8909   3.8920   4.7239   4.7258   4.7265   4.7289
     4.7947   4.7972   5.6428   5.6440   5.6449   5.6461   6.4865   6.4877
     6.4883   6.4894   7.3040   7.3050   7.3067   7.3080   8.1134   8.1146
     8.1154   8.1165   8.9858   8.9872   8.9879   8.9893   9.0281   9.0295
     9.2734   9.2751

          k =-0.5000-0.3000 0.3000 (  7950 PWs)   bands (ev):

    -2.2621  -2.2593  -1.3655  -1.3628  -1.3617  -1.3600  -0.4713  -0.4684
     1.2938   1.2965   1.2976   1.2993   2.1665   2.1675   2.1714   2.1720
     2.1740   2.1752   3.0357   3.0370   3.0379   3.0392   3.8794   3.8798
     3.8817   3.8833   3.8907   3.8921   4.7233   4.7260   4.7271   4.7288
     4.7945   4.7973   5.6426   5.6439   5.6449   5.6463   6.4868   6.4875
     6.4879   6.4896   7.3036   7.3052   7.3071   7.3080   8.1141   8.1144
     8.1149   8.1165   8.9855   8.9872   8.9879   8.9895   9.0281   9.0296
     9.2744   9.2760

          k = 0.5000-0.3000-0.3000 (  7950 PWs)   bands (ev):

    -2.2621  -2.2593  -1.3658  -1.3625  -1.3620  -1.3597  -0.4713  -0.4684
     1.2935   1.2968   1.2973   1.2996   2.1667   2.1673   2.1709   2.1724
     2.1743   2.1750   3.0351   3.0366   3.0385   3.0397   3.8791   3.8802
     3.8818   3.8832   3.8907   3.8922   4.7230   4.7263   4.7268   4.7291
     4.7946   4.7973   5.6420   5.6435   5.6455   5.6467   6.4865   6.4877
     6.4883   6.4894   7.3037   7.3050   7.3063   7.3088   8.1135   8.1148
     8.1153   8.1165   8.9849   8.9868   8.9885   8.9899   9.0281   9.0296
     9.2745   9.2759

          k =-0.3000-0.5000 0.3000 (  7950 PWs)   bands (ev):

    -2.2610  -2.2603  -1.3646  -1.3641  -1.3615  -1.3598  -0.4702  -0.4695
     1.2947   1.2952   1.2978   1.2995   2.1667   2.1674   2.1725   2.1727
     2.1734   2.1739   3.0356   3.0357   3.0389   3.0395   3.8808   3.8808
     3.8812   3.8815   3.8913   3.8916   4.7242   4.7247   4.7273   4.7290
     4.7956   4.7963   5.6425   5.6427   5.6460   5.6465   6.4877   6.4878
     6.4881   6.4883   7.3043   7.3056   7.3067   7.3072   8.1147   8.1149
     8.1152   8.1153   8.9856   8.9858   8.9890   8.9898   9.0286   9.0290
     9.2745   9.2752

          k =-0.3000 0.5000-0.3000 (  7950 PWs)   bands (ev):

    -2.2610  -2.2603  -1.3649  -1.3643  -1.3610  -1.3599  -0.4702  -0.4695
     1.2944   1.2950   1.2983   1.2994   2.1666   2.1672   2.1726   2.1730
     2.1732   2.1740   3.0352   3.0355   3.0394   3.0397   3.8805   3.8807
     3.8809   3.8821   3.8914   3.8916   4.7239   4.7245   4.7278   4.7289
     4.7956   4.7963   5.6421   5.6425   5.6464   5.6467   6.4874   6.4877
     6.4878   6.4889   7.3046   7.3052   7.3065   7.3075   8.1145   8.1147
     8.1150   8.1159   8.9852   8.9856   8.9895   8.9899   9.0286   9.0290
     9.2746   9.2750

          k =-0.5000 0.3000 0.5000 (  7960 PWs)   bands (ev):

    -1.9045  -1.9016  -1.8995  -1.8972  -1.0085  -1.0057  -1.0036  -1.0012
     1.6441   1.6470   1.6491   1.6515   2.5119   2.5125   2.5141   2.5164
     2.5173   2.5176   2.5188   2.5209   3.3786   3.3792   3.3808   3.3831
     3.3840   3.3843   3.3856   3.3876   4.2195   4.2224   4.2247   4.2271
     5.9719   5.9727   5.9741   5.9765   5.9774   5.9779   5.9791   5.9812
     6.8104   6.8118   6.8129   6.8140   7.6662   7.6676   7.6687   7.6699
     8.4715   8.4723   8.4738   8.4764   8.4773   8.4778   8.4791   8.4814
     9.5956   9.5995

          k =-0.5000 0.5000 0.3000 (  7960 PWs)   bands (ev):

    -1.9029  -1.9017  -1.8992  -1.8990  -1.0070  -1.0058  -1.0033  -1.0031
     1.6457   1.6469   1.6495   1.6497   2.5124   2.5137   2.5143   2.5158
     2.5165   2.5181   2.5190   2.5196   3.3791   3.3804   3.3810   3.3825
     3.3832   3.3848   3.3858   3.3863   4.2212   4.2224   4.2250   4.2252
     5.9725   5.9738   5.9745   5.9759   5.9767   5.9784   5.9792   5.9798
     6.8111   6.8118   6.8130   6.8131   7.6669   7.6676   7.6689   7.6690
     8.4720   8.4735   8.4741   8.4757   8.4765   8.4785   8.4793   8.4800
     9.5972   9.5992

     the Fermi energy is     7.9115 ev

!    total energy              =   -1264.08264737 Ry
     Harris-Foulkes estimate   =   -1264.08264704 Ry
     estimated scf accuracy    <       0.00000064 Ry

     total all-electron energy =    -15540.651669 Ry

     The total energy is the sum of the following terms:

     one-electron contribution =     101.24610291 Ry
     hartree contribution      =       0.19610256 Ry
     xc contribution           =     -82.91416400 Ry
     ewald contribution        =    -172.93188273 Ry
     one-center paw contrib.   =   -1109.68523356 Ry
     smearing contrib. (-TS)   =       0.00642745 Ry

     convergence has been achieved in   8 iterations

     Forces acting on atoms (cartesian axes, Ry/au):

     atom    1 type  1   force =    -0.00002532   -0.00001215    0.00001246
     atom    2 type  1   force =    -0.00010648    0.00023319    0.00007863
     atom    3 type  1   force =     0.00022737    0.00001321   -0.00051786
     atom    4 type  1   force =     0.00000859   -0.00021382   -0.00034956
     atom    5 type  1   force =    -0.00044874   -0.00035409    0.00033125
     atom    6 type  1   force =    -0.00018280    0.00038081   -0.00004519
     atom    7 type  1   force =    -0.00018900   -0.00052716    0.00033805
     atom    8 type  1   force =    -0.00002459   -0.00006503   -0.00027835
     atom    9 type  1   force =    -0.00002250   -0.00003260    0.00009077
     atom   10 type  1   force =    -0.00020940   -0.00010561   -0.00069156
     atom   11 type  1   force =    -0.00026835   -0.00029012   -0.00038719
     atom   12 type  1   force =    -0.00016653    0.00000201   -0.00004803
     atom   13 type  1   force =    -0.00017162   -0.00032889   -0.00004488
     atom   14 type  1   force =    -0.00003019    0.00012861    0.00046304
     atom   15 type  1   force =    -0.00051329    0.00038869    0.00053766
     atom   16 type  1   force =     0.00065843    0.00051019    0.00018585
     atom   17 type  1   force =    -0.00037442    0.00007378    0.00005445
     atom   18 type  1   force =     0.00020219   -0.00010782    0.00038723
     atom   19 type  1   force =     0.00056753    0.00022221   -0.00010040
     atom   20 type  1   force =     0.00007712    0.00021703    0.00007123
     atom   21 type  1   force =     0.00018287   -0.00055773    0.00010663
     atom   22 type  1   force =    -0.00008254    0.00060425    0.00018832
     atom   23 type  1   force =     0.00012548   -0.00007002   -0.00014615
     atom   24 type  1   force =     0.00013478    0.00009372   -0.00001859
     atom   25 type  1   force =     0.00007662   -0.00017374    0.00031708
     atom   26 type  1   force =     0.00033255   -0.00023490   -0.00025321
     atom   27 type  1   force =    -0.00016718    0.00009820    0.00010803
     atom   28 type  1   force =    -0.00008963    0.00024460   -0.00009800
     atom   29 type  1   force =     0.00084814   -0.00032717   -0.00009937
     atom   30 type  1   force =    -0.00024529    0.00003858    0.00020068
     atom   31 type  1   force =    -0.00003706   -0.00009911   -0.00035471
     atom   32 type  1   force =    -0.00008673    0.00025087   -0.00003833

     Total force =     0.002763     Total SCF correction =     0.000422
     SCF correction compared to forces is large: reduce conv_thr to get better values


     Computing stress (Cartesian axis) and pressure

          total   stress  (Ry/bohr**3)                   (kbar)     P=   -1.75
  -0.00001190  -0.00000002  -0.00000002         -1.75     -0.00     -0.00
  -0.00000002  -0.00001192  -0.00000000         -0.00     -1.75     -0.00
  -0.00000002  -0.00000000  -0.00001190         -0.00     -0.00     -1.75


     Writing output data file fe_scf_fcc_2.save/
 
     init_run     :      5.17s CPU      5.41s WALL (       1 calls)
     electrons    :     76.48s CPU     78.53s WALL (       1 calls)
     forces       :      1.08s CPU      1.13s WALL (       1 calls)
     stress       :      3.57s CPU      3.59s WALL (       1 calls)

     Called by init_run:
     wfcinit      :      4.97s CPU      5.13s WALL (       1 calls)
     potinit      :      0.11s CPU      0.12s WALL (       1 calls)
     hinit0       :      0.06s CPU      0.14s WALL (       1 calls)

     Called by electrons:
     c_bands      :     67.41s CPU     69.11s WALL (       9 calls)
     sum_band     :      8.15s CPU      8.47s WALL (       9 calls)
     v_of_rho     :      0.06s CPU      0.07s WALL (       9 calls)
     newd         :      0.05s CPU      0.06s WALL (       9 calls)
     PAW_pot      :      0.87s CPU      0.88s WALL (       9 calls)
     mix_rho      :      0.02s CPU      0.02s WALL (       9 calls)

     Called by c_bands:
     init_us_2    :      1.33s CPU      1.37s WALL (    1323 calls)
     cegterg      :     63.89s CPU     65.52s WALL (     567 calls)

     Called by sum_band:
     sum_band:bec :      0.09s CPU      0.10s WALL (     567 calls)
     addusdens    :      0.04s CPU      0.05s WALL (       9 calls)

     Called by *egterg:
     h_psi        :     42.45s CPU     43.87s WALL (    2258 calls)
     s_psi        :      3.62s CPU      3.64s WALL (    2258 calls)
     g_psi        :      0.15s CPU      0.16s WALL (    1628 calls)
     cdiaghg      :     13.96s CPU     14.02s WALL (    2132 calls)

     Called by h_psi:
     h_psi:pot    :     42.23s CPU     43.65s WALL (    2258 calls)
     h_psi:calbec :      4.04s CPU      4.31s WALL (    2258 calls)
     vloc_psi     :     34.42s CPU     35.54s WALL (    2258 calls)
     add_vuspsi   :      3.74s CPU      3.77s WALL (    2258 calls)

     General routines
     calbec       :      6.25s CPU      6.67s WALL (    3140 calls)
     fft          :      0.10s CPU      0.19s WALL (     142 calls)
     ffts         :      0.01s CPU      0.01s WALL (      18 calls)
     fftw         :     37.40s CPU     38.64s WALL (  224582 calls)
     interpolate  :      0.01s CPU      0.01s WALL (       9 calls)
 
     Parallel routines
     fft_scatt_xy :      3.66s CPU      3.78s WALL (  224742 calls)
     fft_scatt_yz :     18.78s CPU     19.40s WALL (  224742 calls)
 
     PWSCF        :  1m27.76s CPU     1m30.71s WALL

 
   This run was terminated on:   1:24: 2  12Mar2020            

=------------------------------------------------------------------------------=
   JOB DONE.
=------------------------------------------------------------------------------=
