
     Program PWSCF v.6.3 starts on 12Mar2020 at  1: 7:20 

     This program is part of the open-source Quantum ESPRESSO suite
     for quantum simulation of materials; please cite
         "P. Giannozzi et al., J. Phys.:Condens. Matter 21 395502 (2009);
         "P. Giannozzi et al., J. Phys.:Condens. Matter 29 465901 (2017);
          URL http://www.quantum-espresso.org", 
     in publications or presentations arising from this work. More details at
     http://www.quantum-espresso.org/quote

     Parallel version (MPI & OpenMP), running on      20 processor cores
     Number of MPI processes:                20
     Threads/MPI process:                     1

     MPI processes distributed on     1 nodes
     R & G space division:  proc/nbgrp/npool/nimage =      20
     Reading input from wd/kpoints/file_000139.in
Warning: card &IONS ignored
Warning: card ION_DYNAMICS = 'BFGS', ignored
Warning: card / ignored
Warning: card &CELL ignored
Warning: card CELL_DYNAMICS = 'BFGS', ignored
Warning: card CELL_FACTOR = 2.0, ignored
Warning: card PRESS = 0.0, ignored
Warning: card / ignored

     Current dimensions of program PWSCF are:
     Max number of different atomic species (ntypx) = 10
     Max number of k-points (npk) =  40000
     Max angular momentum in pseudopotentials (lmaxx) =  3
     Message from routine read_upf::
     Pseudo file /rds/homes/b/bxp912/pp/Al.pbe-nl-kjpaw_psl.1.0.0.UPF has been successfully fixed on the fly.
To avoid this message in the future you can permanently fix 
 your pseudo files following instructions given in: 
https://gitlab.com/QEF/q-e/blob/master/upftools/how_to_fix_upf.md
               file Al.pbe-nl-kjpaw_psl.1.0.0.UPF: wavefunction(s)  3S 3P renormalized

     Subspace diagonalization in iterative solution of the eigenvalue problem:
     a serial algorithm will be used

 
     Parallelization info
     --------------------
     sticks:   dense  smooth     PW     G-vecs:    dense   smooth      PW
     Min          96      96     27                 3225     3198     487
     Max          98      97     28                 3241     3201     490
     Sum        1941    1933    553                64589    63989    9771
 


     bravais-lattice index     =            0
     lattice parameter (alat)  =      15.2712  a.u.
     unit-cell volume          =    3561.3897 (a.u.)^3
     number of atoms/cell      =           32
     number of atomic types    =            1
     number of electrons       =        96.00
     number of Kohn-Sham states=           58
     kinetic-energy cutoff     =      26.0000  Ry
     charge density cutoff     =     105.0000  Ry
     convergence threshold     =      1.0E-06
     mixing beta               =       0.1000
     number of iterations used =           10  TF        mixing
     Exchange-correlation      = SLA PW PBX PBC ( 1  4  3  4 0 0)

     celldm(1)=  15.271200  celldm(2)=   0.000000  celldm(3)=   0.000000
     celldm(4)=   0.000000  celldm(5)=   0.000000  celldm(6)=   0.000000

     crystal axes: (cart. coord. in units of alat)
               a(1) = (   1.000000   0.000000   0.000000 )  
               a(2) = (   0.000000   1.000000   0.000000 )  
               a(3) = (   0.000000   0.000000   1.000000 )  

     reciprocal axes: (cart. coord. in units 2 pi/alat)
               b(1) = (  1.000000  0.000000  0.000000 )  
               b(2) = (  0.000000  1.000000  0.000000 )  
               b(3) = (  0.000000  0.000000  1.000000 )  


     PseudoPot. # 1 for Al read from file:
     /rds/homes/b/bxp912/pp/Al.pbe-nl-kjpaw_psl.1.0.0.UPF
     MD5 check sum: 339dbea23cf3ab9a065ad45c0f9085d7
     Pseudo is Projector augmented-wave + core cor, Zval =  3.0
     Generated using "atomic" code by A. Dal Corso v.5.1
     Shape of augmentation charge: PSQ
     Using radial grid of 1135 points,  4 beta functions with: 
                l(1) =   0
                l(2) =   0
                l(3) =   1
                l(4) =   1
     Q(r) pseudized with 0 coefficients 


     atomic species   valence    mass     pseudopotential
        Al             3.00    26.98200     Al( 1.00)

     No symmetry found



   Cartesian axes

     site n.     atom                  positions (alat units)
         1           Al  tau(   1) = (  -0.0000327   0.0000095   0.0000680  )
         2           Al  tau(   2) = (   0.2500796   0.2498100   0.0000703  )
         3           Al  tau(   3) = (   0.2499071   0.0000305   0.2502955  )
         4           Al  tau(   4) = (  -0.0000200   0.2502187   0.2501837  )
         5           Al  tau(   5) = (   0.0002558   0.0002521   0.4998810  )
         6           Al  tau(   6) = (   0.2501194   0.2498326   0.5000036  )
         7           Al  tau(   7) = (   0.2500278   0.0001539   0.7498880  )
         8           Al  tau(   8) = (   0.0000549   0.2501136   0.7502101  )
         9           Al  tau(   9) = (   0.0002375   0.5001078  -0.0000154  )
        10           Al  tau(  10) = (   0.2501396   0.7501762   0.0004054  )
        11           Al  tau(  11) = (   0.2501891   0.5001088   0.2502510  )
        12           Al  tau(  12) = (   0.0000383   0.7500455   0.2500253  )
        13           Al  tau(  13) = (   0.0001102   0.5001562   0.5000990  )
        14           Al  tau(  14) = (   0.2499640   0.7500632   0.4998706  )
        15           Al  tau(  15) = (   0.2503366   0.4997894   0.7496960  )
        16           Al  tau(  16) = (  -0.0003280   0.7497055   0.7499931  )
        17           Al  tau(  17) = (   0.5002037  -0.0001004  -0.0000387  )
        18           Al  tau(  18) = (   0.7499123   0.2500941  -0.0002332  )
        19           Al  tau(  19) = (   0.7496354  -0.0000959   0.2500771  )
        20           Al  tau(  20) = (   0.4999751   0.2499614   0.2498317  )
        21           Al  tau(  21) = (   0.4999211   0.0002929   0.4999726  )
        22           Al  tau(  22) = (   0.7500684   0.2496958   0.4999523  )
        23           Al  tau(  23) = (   0.7500357  -0.0000687   0.7500257  )
        24           Al  tau(  24) = (   0.5000114   0.2498864   0.7499948  )
        25           Al  tau(  25) = (   0.4998526   0.5001156  -0.0002192  )
        26           Al  tau(  26) = (   0.7497723   0.7500978   0.0002736  )
        27           Al  tau(  27) = (   0.7501007   0.4998018   0.2499462  )
        28           Al  tau(  28) = (   0.5000878   0.7497908   0.2502093  )
        29           Al  tau(  29) = (   0.4996761   0.5001027   0.5000404  )
        30           Al  tau(  30) = (   0.7501658   0.7499872   0.4998547  )
        31           Al  tau(  31) = (   0.7499472   0.5000095   0.7501393  )
        32           Al  tau(  32) = (   0.5000142   0.7499486   0.7499177  )

     number of k points=    14  Marzari-Vanderbilt smearing, width (Ry)=  0.0300
                       cart. coord. in units 2pi/alat
        k(    1) = (   0.1666667   0.1666667   0.1666667), wk =   0.1481481
        k(    2) = (   0.1666667   0.1666667  -0.5000000), wk =   0.1481481
        k(    3) = (   0.1666667  -0.5000000  -0.5000000), wk =   0.1481481
        k(    4) = (  -0.5000000  -0.5000000  -0.5000000), wk =   0.0740741
        k(    5) = (  -0.1666667  -0.1666667   0.1666667), wk =   0.1481481
        k(    6) = (  -0.1666667   0.1666667  -0.1666667), wk =   0.1481481
        k(    7) = (   0.1666667  -0.1666667  -0.1666667), wk =   0.1481481
        k(    8) = (  -0.1666667   0.1666667   0.5000000), wk =   0.1481481
        k(    9) = (  -0.5000000  -0.1666667   0.1666667), wk =   0.1481481
        k(   10) = (   0.5000000  -0.1666667  -0.1666667), wk =   0.1481481
        k(   11) = (  -0.1666667  -0.5000000   0.1666667), wk =   0.1481481
        k(   12) = (  -0.1666667   0.5000000  -0.1666667), wk =   0.1481481
        k(   13) = (  -0.5000000   0.1666667   0.5000000), wk =   0.1481481
        k(   14) = (  -0.5000000   0.5000000   0.1666667), wk =   0.1481481

     Dense  grid:    64589 G-vectors     FFT dimensions: (  50,  50,  50)

     Smooth grid:    63989 G-vectors     FFT dimensions: (  50,  50,  50)

     Estimated max dynamical RAM per process >      16.38 MB

     Estimated total dynamical RAM >     327.61 MB

     Initial potential from superposition of free atoms

     starting charge   95.92671, renormalised to   96.00000
     Starting wfcs are  128 randomized atomic wfcs
     Checking if some PAW data can be deallocated... 

     total cpu time spent up to now is        2.5 secs

     Self-consistent Calculation

     iteration #  1     ecut=    26.00 Ry     beta= 0.10
     Davidson diagonalization with overlap
     ethr =  1.00E-02,  avg # of iterations =  3.0

     Threshold (ethr) on eigenvalues was too large:
     Diagonalizing with lowered threshold

     Davidson diagonalization with overlap
     ethr =  1.93E-04,  avg # of iterations =  3.6

     total cpu time spent up to now is        7.0 secs

     total energy              =   -1264.09906239 Ry
     Harris-Foulkes estimate   =   -1264.10525266 Ry
     estimated scf accuracy    <       0.18061127 Ry

     iteration #  2     ecut=    26.00 Ry     beta= 0.10
     Davidson diagonalization with overlap
     ethr =  1.88E-04,  avg # of iterations =  1.0

     total cpu time spent up to now is        8.5 secs

     total energy              =   -1264.05195569 Ry
     Harris-Foulkes estimate   =   -1264.09986507 Ry
     estimated scf accuracy    <       0.15677129 Ry

     iteration #  3     ecut=    26.00 Ry     beta= 0.10
     Davidson diagonalization with overlap
     ethr =  1.63E-04,  avg # of iterations =  1.0

     total cpu time spent up to now is        9.9 secs

     total energy              =   -1264.05483313 Ry
     Harris-Foulkes estimate   =   -1264.05496902 Ry
     estimated scf accuracy    <       0.00061177 Ry

     iteration #  4     ecut=    26.00 Ry     beta= 0.10
     Davidson diagonalization with overlap
     ethr =  6.37E-07,  avg # of iterations =  4.9

     total cpu time spent up to now is       13.0 secs

     total energy              =   -1264.05545406 Ry
     Harris-Foulkes estimate   =   -1264.05561435 Ry
     estimated scf accuracy    <       0.00035561 Ry

     iteration #  5     ecut=    26.00 Ry     beta= 0.10
     Davidson diagonalization with overlap
     ethr =  3.70E-07,  avg # of iterations =  1.0

     total cpu time spent up to now is       14.5 secs

     total energy              =   -1264.05526691 Ry
     Harris-Foulkes estimate   =   -1264.05546438 Ry
     estimated scf accuracy    <       0.00022927 Ry

     iteration #  6     ecut=    26.00 Ry     beta= 0.10
     Davidson diagonalization with overlap
     ethr =  2.39E-07,  avg # of iterations =  2.0

     total cpu time spent up to now is       16.5 secs

     total energy              =   -1264.05532933 Ry
     Harris-Foulkes estimate   =   -1264.05533006 Ry
     estimated scf accuracy    <       0.00001346 Ry

     iteration #  7     ecut=    26.00 Ry     beta= 0.10
     Davidson diagonalization with overlap
     ethr =  1.40E-08,  avg # of iterations =  2.4

     total cpu time spent up to now is       18.2 secs

     total energy              =   -1264.05532074 Ry
     Harris-Foulkes estimate   =   -1264.05533020 Ry
     estimated scf accuracy    <       0.00000568 Ry

     iteration #  8     ecut=    26.00 Ry     beta= 0.10
     Davidson diagonalization with overlap
     ethr =  5.92E-09,  avg # of iterations =  2.3

     total cpu time spent up to now is       20.1 secs

     End of self-consistent calculation

          k = 0.1667 0.1667 0.1667 (  8003 PWs)   bands (ev):

    -3.0432  -1.5439  -1.5415  -1.5384  -0.0590  -0.0582  -0.0560  -0.0548
    -0.0534  -0.0498   1.4116   1.4128   1.4150   1.4162   1.4172   1.4179
     1.4201   2.8659   2.8677   2.8690   2.8698   2.8716   2.8742   4.2337
     4.2344   4.2351   4.3311   4.3319   4.3326   5.6426   5.6430   5.6460
     5.6467   5.6480   5.6493   5.7597   7.0608   7.0611   7.0628   7.0645
     7.0655   7.0663   7.0746   7.0771   7.0803   7.4080   7.4088   7.4096
     8.4789   8.4795   8.4812   8.4825   8.4838   8.4844   8.8189   8.8204
     8.8215   8.8236

          k = 0.1667 0.1667-0.5000 (  7946 PWs)   bands (ev):

    -2.5421  -2.5396  -1.0459  -1.0451  -1.0435  -1.0419   0.4330   0.4348
     0.4365   0.4375   0.4392   0.4398   1.8953   1.8966   1.9013   1.9019
     1.9038   1.9045   3.3445   3.3455   3.3459   3.3462   3.3486   3.3505
     4.7059   4.7064   4.7083   4.7091   4.7728   4.7741   4.7742   4.7753
     4.8034   4.8046   6.1402   6.1409   6.1425   6.1442   6.2245   6.2251
     6.2258   6.2267   7.5412   7.5418   7.5435   7.5451   7.6423   7.6436
     7.8574   7.8581   7.8597   7.8607   8.9804   8.9807   8.9819   8.9826
     9.3409   9.3428

          k = 0.1667-0.5000-0.5000 (  7948 PWs)   bands (ev):

    -2.0424  -2.0415  -2.0390  -2.0377  -0.5509  -0.5499  -0.5475  -0.5461
     0.9247   0.9257   0.9281   0.9295   2.3772   2.3786   2.3793   2.3802
     2.3812   2.3833   2.3843   2.3849   3.8171   3.8185   3.8192   3.8203
     3.8210   3.8233   3.8242   3.8249   5.1723   5.1734   5.1760   5.1775
     5.2762   5.2775   5.2782   5.2792   5.2803   5.2823   5.2834   5.2840
     6.6690   6.6695   6.6708   6.6715   8.1012   8.1018   8.1030   8.1037
     8.4125   8.4134   8.4155   8.4167   9.3907   9.3919   9.3934   9.3943
     9.3970   9.3984

          k =-0.5000-0.5000-0.5000 (  8024 PWs)   bands (ev):

    -1.5460  -1.5452  -1.5426  -1.5420  -1.5408  -1.5389  -1.5385  -1.5358
     2.8565   2.8569   2.8582   2.8588   2.8600   2.8610   2.8612   2.8622
     2.8625   2.8631   2.8634   2.8640   2.8643   2.8647   2.8654   2.8655
     2.8664   2.8673   2.8679   2.8681   2.8690   2.8705   2.8720   2.8741
     7.1500   7.1510   7.1517   7.1522   7.1534   7.1540   7.1545   7.1547
     7.1549   7.1556   7.1568   7.1573   7.1580   7.1582   7.1585   7.1591
     7.1596   7.1603   7.1607   7.1609   7.1619   7.1626   7.1643   7.1645
    11.3567  11.5715

          k =-0.1667-0.1667 0.1667 (  8003 PWs)   bands (ev):

    -3.0432  -1.5434  -1.5415  -1.5390  -0.0588  -0.0574  -0.0561  -0.0547
    -0.0523  -0.0520   1.4110   1.4142   1.4147   1.4156   1.4170   1.4179
     1.4202   2.8668   2.8678   2.8685   2.8698   2.8714   2.8740   4.2340
     4.2344   4.2348   4.3314   4.3319   4.3323   5.6417   5.6448   5.6453
     5.6463   5.6480   5.6495   5.7597   7.0608   7.0623   7.0631   7.0641
     7.0649   7.0659   7.0751   7.0771   7.0797   7.4083   7.4088   7.4093
     8.4792   8.4804   8.4814   8.4822   8.4828   8.4843   8.8191   8.8204
     8.8219   8.8230

          k =-0.1667 0.1667-0.1667 (  8003 PWs)   bands (ev):

    -3.0432  -1.5439  -1.5413  -1.5386  -0.0592  -0.0578  -0.0556  -0.0544
    -0.0529  -0.0513   1.4121   1.4127   1.4143   1.4155   1.4175   1.4187
     1.4200   2.8671   2.8676   2.8683   2.8697   2.8718   2.8739   4.2336
     4.2344   4.2351   4.3310   4.3319   4.3327   5.6428   5.6434   5.6447
     5.6459   5.6486   5.6502   5.7597   7.0609   7.0618   7.0625   7.0643
     7.0654   7.0664   7.0746   7.0772   7.0799   7.4080   7.4088   7.4096
     8.4791   8.4799   8.4807   8.4828   8.4834   8.4844   8.8193   8.8202
     8.8215   8.8231

          k = 0.1667-0.1667-0.1667 (  8003 PWs)   bands (ev):

    -3.0432  -1.5435  -1.5419  -1.5383  -0.0592  -0.0575  -0.0560  -0.0554
    -0.0541  -0.0491   1.4122   1.4128   1.4138   1.4158   1.4168   1.4175
     1.4218   2.8661   2.8672   2.8684   2.8703   2.8712   2.8751   4.2335
     4.2344   4.2352   4.3309   4.3319   4.3328   5.6425   5.6436   5.6450
     5.6464   5.6478   5.6503   5.7597   7.0605   7.0619   7.0625   7.0642
     7.0647   7.0666   7.0753   7.0769   7.0803   7.4079   7.4088   7.4097
     8.4785   8.4803   8.4809   8.4828   8.4832   8.4846   8.8193   8.8197
     8.8218   8.8231

          k =-0.1667 0.1667 0.5000 (  7946 PWs)   bands (ev):

    -2.5421  -2.5396  -1.0465  -1.0444  -1.0440  -1.0416   0.4333   0.4343
     0.4361   0.4376   0.4391   0.4404   1.8951   1.8964   1.9012   1.9024
     1.9035   1.9049   3.3441   3.3453   3.3460   3.3472   3.3482   3.3502
     4.7055   4.7068   4.7081   4.7093   4.7725   4.7736   4.7745   4.7757
     4.8034   4.8046   6.1395   6.1416   6.1421   6.1446   6.2241   6.2252
     6.2259   6.2269   7.5410   7.5421   7.5435   7.5449   7.6423   7.6436
     7.8569   7.8586   7.8594   7.8610   8.9801   8.9810   8.9818   8.9826
     9.3406   9.3423

          k =-0.5000-0.1667 0.1667 (  7946 PWs)   bands (ev):

    -2.5422  -2.5395  -1.0471  -1.0443  -1.0434  -1.0417   0.4334   0.4353
     0.4361   0.4376   0.4385   0.4399   1.8953   1.8963   1.9014   1.9019
     1.9037   1.9049   3.3440   3.3452   3.3463   3.3474   3.3480   3.3502
     4.7059   4.7062   4.7081   4.7095   4.7723   4.7736   4.7747   4.7759
     4.8032   4.8046   6.1389   6.1418   6.1427   6.1445   6.2244   6.2251
     6.2254   6.2272   7.5405   7.5422   7.5439   7.5449   7.6422   7.6436
     7.8574   7.8579   7.8594   7.8612   8.9799   8.9811   8.9814   8.9832
     9.3400   9.3434

          k = 0.5000-0.1667-0.1667 (  7946 PWs)   bands (ev):

    -2.5422  -2.5395  -1.0474  -1.0442  -1.0435  -1.0413   0.4322   0.4349
     0.4359   0.4375   0.4385   0.4418   1.8954   1.8961   1.9009   1.9023
     1.9039   1.9048   3.3434   3.3447   3.3464   3.3474   3.3486   3.3508
     4.7054   4.7066   4.7082   4.7093   4.7716   4.7730   4.7752   4.7763
     4.8034   4.8048   6.1386   6.1418   6.1426   6.1448   6.2241   6.2253
     6.2259   6.2269   7.5407   7.5420   7.5431   7.5457   7.6422   7.6436
     7.8569   7.8584   7.8596   7.8610   8.9800   8.9809   8.9819   8.9827
     9.3401   9.3425

          k =-0.1667-0.5000 0.1667 (  7946 PWs)   bands (ev):

    -2.5411  -2.5406  -1.0463  -1.0457  -1.0430  -1.0414   0.4336   0.4344
     0.4363   0.4367   0.4389   0.4410   1.8955   1.8961   1.9025   1.9026
     1.9032   1.9036   3.3438   3.3441   3.3473   3.3477   3.3488   3.3495
     4.7071   4.7071   4.7077   4.7078   4.7722   4.7723   4.7756   4.7761
     4.8038   4.8042   6.1397   6.1403   6.1431   6.1447   6.2252   6.2253
     6.2257   6.2258   7.5413   7.5425   7.5436   7.5442   7.6427   7.6431
     7.8586   7.8587   7.8592   7.8594   8.9811   8.9811   8.9816   8.9817
     9.3407   9.3428

          k =-0.1667 0.5000-0.1667 (  7946 PWs)   bands (ev):

    -2.5411  -2.5406  -1.0466  -1.0460  -1.0424  -1.0415   0.4336   0.4345
     0.4367   0.4375   0.4384   0.4401   1.8954   1.8959   1.9025   1.9028
     1.9030   1.9038   3.3434   3.3438   3.3472   3.3477   3.3493   3.3496
     4.7070   4.7071   4.7072   4.7083   4.7718   4.7721   4.7762   4.7765
     4.8037   4.8041   6.1394   6.1401   6.1437   6.1447   6.2249   6.2253
     6.2254   6.2265   7.5415   7.5421   7.5436   7.5444   7.6427   7.6431
     7.8585   7.8587   7.8587   7.8600   8.9808   8.9809   8.9815   8.9824
     9.3411   9.3415

          k =-0.5000 0.1667 0.5000 (  7948 PWs)   bands (ev):

    -2.0438  -2.0412  -2.0389  -2.0367  -0.5523  -0.5496  -0.5473  -0.5451
     0.9233   0.9260   0.9283   0.9305   2.3768   2.3775   2.3789   2.3813
     2.3822   2.3826   2.3838   2.3858   3.8167   3.8174   3.8189   3.8212
     3.8223   3.8225   3.8238   3.8258   5.1709   5.1736   5.1762   5.1785
     5.2757   5.2766   5.2778   5.2802   5.2812   5.2818   5.2829   5.2849
     6.6683   6.6696   6.6709   6.6720   8.1005   8.1019   8.1030   8.1042
     8.4112   8.4137   8.4155   8.4177   9.3903   9.3916   9.3949   9.3957
     9.3974   9.3989

          k =-0.5000 0.5000 0.1667 (  7948 PWs)   bands (ev):

    -2.0422  -2.0411  -2.0387  -2.0385  -0.5507  -0.5496  -0.5471  -0.5470
     0.9249   0.9260   0.9285   0.9287   2.3773   2.3787   2.3793   2.3808
     2.3814   2.3831   2.3839   2.3845   3.8172   3.8187   3.8191   3.8207
     3.8214   3.8230   3.8240   3.8245   5.1726   5.1738   5.1763   5.1765
     5.2764   5.2776   5.2784   5.2797   5.2805   5.2822   5.2828   5.2836
     6.6691   6.6697   6.6709   6.6710   8.1012   8.1019   8.1032   8.1033
     8.4126   8.4136   8.4159   8.4160   9.3909   9.3923   9.3928   9.3950
     9.3962   9.3976

     the Fermi energy is     7.8373 ev

!    total energy              =   -1264.05532161 Ry
     Harris-Foulkes estimate   =   -1264.05532147 Ry
     estimated scf accuracy    <       0.00000094 Ry

     total all-electron energy =    -15540.624344 Ry

     The total energy is the sum of the following terms:

     one-electron contribution =     101.27250296 Ry
     hartree contribution      =       0.20105561 Ry
     xc contribution           =     -82.91746038 Ry
     ewald contribution        =    -172.93188273 Ry
     one-center paw contrib.   =   -1109.68557549 Ry
     smearing contrib. (-TS)   =       0.00603843 Ry

     convergence has been achieved in   8 iterations

     Forces acting on atoms (cartesian axes, Ry/au):

     atom    1 type  1   force =    -0.00000047   -0.00000868    0.00000454
     atom    2 type  1   force =    -0.00010459    0.00022019    0.00008650
     atom    3 type  1   force =     0.00023983    0.00000841   -0.00053607
     atom    4 type  1   force =    -0.00003102   -0.00018846   -0.00034072
     atom    5 type  1   force =    -0.00045919   -0.00038274    0.00034172
     atom    6 type  1   force =    -0.00016227    0.00041870   -0.00002692
     atom    7 type  1   force =    -0.00017161   -0.00055890    0.00035591
     atom    8 type  1   force =     0.00002421   -0.00007617   -0.00027111
     atom    9 type  1   force =     0.00000905   -0.00004857    0.00010875
     atom   10 type  1   force =    -0.00020041   -0.00010132   -0.00070231
     atom   11 type  1   force =    -0.00023858   -0.00028190   -0.00040074
     atom   12 type  1   force =    -0.00012739    0.00002384   -0.00006177
     atom   13 type  1   force =    -0.00018426   -0.00034490   -0.00003461
     atom   14 type  1   force =    -0.00001775    0.00015047    0.00046144
     atom   15 type  1   force =    -0.00053666    0.00036730    0.00053037
     atom   16 type  1   force =     0.00066154    0.00051695    0.00014815
     atom   17 type  1   force =    -0.00042757    0.00006134    0.00008323
     atom   18 type  1   force =     0.00020139   -0.00008364    0.00044077
     atom   19 type  1   force =     0.00053632    0.00024188   -0.00007807
     atom   20 type  1   force =     0.00008511    0.00021808    0.00006989
     atom   21 type  1   force =     0.00021146   -0.00057145    0.00011019
     atom   22 type  1   force =    -0.00011889    0.00060787    0.00015020
     atom   23 type  1   force =     0.00013531   -0.00008686   -0.00020272
     atom   24 type  1   force =     0.00013156    0.00012358   -0.00007229
     atom   25 type  1   force =     0.00007468   -0.00018733    0.00033785
     atom   26 type  1   force =     0.00032357   -0.00022511   -0.00025770
     atom   27 type  1   force =    -0.00018106    0.00004237    0.00013801
     atom   28 type  1   force =    -0.00009280    0.00024132   -0.00006518
     atom   29 type  1   force =     0.00086478   -0.00035090   -0.00012060
     atom   30 type  1   force =    -0.00026801    0.00004280    0.00022719
     atom   31 type  1   force =    -0.00007203   -0.00007495   -0.00038577
     atom   32 type  1   force =    -0.00010427    0.00028682   -0.00003811

     Total force =     0.002827     Total SCF correction =     0.000522
     SCF correction compared to forces is large: reduce conv_thr to get better values


     Computing stress (Cartesian axis) and pressure

          total   stress  (Ry/bohr**3)                   (kbar)     P=   -1.66
  -0.00001126  -0.00000000  -0.00000001         -1.66     -0.00     -0.00
  -0.00000000  -0.00001126   0.00000000         -0.00     -1.66      0.00
  -0.00000001   0.00000000  -0.00001127         -0.00      0.00     -1.66


     Writing output data file fe_scf_fcc_2.save/
 
     init_run     :      1.44s CPU      1.65s WALL (       1 calls)
     electrons    :     17.12s CPU     17.58s WALL (       1 calls)
     forces       :      0.28s CPU      0.29s WALL (       1 calls)
     stress       :      0.92s CPU      0.93s WALL (       1 calls)

     Called by init_run:
     wfcinit      :      1.11s CPU      1.16s WALL (       1 calls)
     potinit      :      0.11s CPU      0.12s WALL (       1 calls)
     hinit0       :      0.19s CPU      0.34s WALL (       1 calls)

     Called by electrons:
     c_bands      :     14.32s CPU     14.67s WALL (       9 calls)
     sum_band     :      1.89s CPU      1.97s WALL (       9 calls)
     v_of_rho     :      0.06s CPU      0.07s WALL (       9 calls)
     newd         :      0.05s CPU      0.05s WALL (       9 calls)
     PAW_pot      :      0.88s CPU      0.88s WALL (       9 calls)
     mix_rho      :      0.02s CPU      0.02s WALL (       9 calls)

     Called by c_bands:
     init_us_2    :      0.25s CPU      0.26s WALL (     294 calls)
     cegterg      :     13.54s CPU     13.88s WALL (     126 calls)

     Called by sum_band:
     sum_band:bec :      0.02s CPU      0.02s WALL (     126 calls)
     addusdens    :      0.03s CPU      0.04s WALL (       9 calls)

     Called by *egterg:
     h_psi        :      9.21s CPU      9.53s WALL (     435 calls)
     s_psi        :      0.65s CPU      0.66s WALL (     435 calls)
     g_psi        :      0.03s CPU      0.03s WALL (     295 calls)
     cdiaghg      :      2.78s CPU      2.79s WALL (     407 calls)

     Called by h_psi:
     h_psi:pot    :      9.18s CPU      9.49s WALL (     435 calls)
     h_psi:calbec :      0.84s CPU      0.90s WALL (     435 calls)
     vloc_psi     :      7.66s CPU      7.91s WALL (     435 calls)
     add_vuspsi   :      0.67s CPU      0.68s WALL (     435 calls)

     General routines
     calbec       :      1.45s CPU      1.54s WALL (     631 calls)
     fft          :      0.26s CPU      0.40s WALL (     142 calls)
     ffts         :      0.01s CPU      0.01s WALL (      18 calls)
     fftw         :      8.44s CPU      8.72s WALL (   48972 calls)
     interpolate  :      0.01s CPU      0.01s WALL (       9 calls)
 
     Parallel routines
     fft_scatt_xy :      0.77s CPU      0.79s WALL (   49132 calls)
     fft_scatt_yz :      4.56s CPU      4.82s WALL (   49132 calls)
 
     PWSCF        :    20.65s CPU        21.61s WALL

 
   This run was terminated on:   1: 7:41  12Mar2020            

=------------------------------------------------------------------------------=
   JOB DONE.
=------------------------------------------------------------------------------=
