
     Program PWSCF v.6.3 starts on 12Mar2020 at  1:58:34 

     This program is part of the open-source Quantum ESPRESSO suite
     for quantum simulation of materials; please cite
         "P. Giannozzi et al., J. Phys.:Condens. Matter 21 395502 (2009);
         "P. Giannozzi et al., J. Phys.:Condens. Matter 29 465901 (2017);
          URL http://www.quantum-espresso.org", 
     in publications or presentations arising from this work. More details at
     http://www.quantum-espresso.org/quote

     Parallel version (MPI & OpenMP), running on      20 processor cores
     Number of MPI processes:                20
     Threads/MPI process:                     1

     MPI processes distributed on     1 nodes
     R & G space division:  proc/nbgrp/npool/nimage =      20
     Reading input from wd/kpoints/file_000160.in
Warning: card &IONS ignored
Warning: card ION_DYNAMICS = 'BFGS', ignored
Warning: card / ignored
Warning: card &CELL ignored
Warning: card CELL_DYNAMICS = 'BFGS', ignored
Warning: card CELL_FACTOR = 2.0, ignored
Warning: card PRESS = 0.0, ignored
Warning: card / ignored

     Current dimensions of program PWSCF are:
     Max number of different atomic species (ntypx) = 10
     Max number of k-points (npk) =  40000
     Max angular momentum in pseudopotentials (lmaxx) =  3
     Message from routine read_upf::
     Pseudo file /rds/homes/b/bxp912/pp/Al.pbe-nl-kjpaw_psl.1.0.0.UPF has been successfully fixed on the fly.
To avoid this message in the future you can permanently fix 
 your pseudo files following instructions given in: 
https://gitlab.com/QEF/q-e/blob/master/upftools/how_to_fix_upf.md
               file Al.pbe-nl-kjpaw_psl.1.0.0.UPF: wavefunction(s)  3S 3P renormalized

     Subspace diagonalization in iterative solution of the eigenvalue problem:
     a serial algorithm will be used

 
     Parallelization info
     --------------------
     sticks:   dense  smooth     PW     G-vecs:    dense   smooth      PW
     Min          96      96     27                 3225     3198     487
     Max          98      97     28                 3241     3201     490
     Sum        1941    1933    553                64589    63989    9771
 


     bravais-lattice index     =            0
     lattice parameter (alat)  =      15.2712  a.u.
     unit-cell volume          =    3561.3897 (a.u.)^3
     number of atoms/cell      =           32
     number of atomic types    =            1
     number of electrons       =        96.00
     number of Kohn-Sham states=           58
     kinetic-energy cutoff     =      26.0000  Ry
     charge density cutoff     =     105.0000  Ry
     convergence threshold     =      1.0E-06
     mixing beta               =       0.1000
     number of iterations used =           10  TF        mixing
     Exchange-correlation      = SLA PW PBX PBC ( 1  4  3  4 0 0)

     celldm(1)=  15.271200  celldm(2)=   0.000000  celldm(3)=   0.000000
     celldm(4)=   0.000000  celldm(5)=   0.000000  celldm(6)=   0.000000

     crystal axes: (cart. coord. in units of alat)
               a(1) = (   1.000000   0.000000   0.000000 )  
               a(2) = (   0.000000   1.000000   0.000000 )  
               a(3) = (   0.000000   0.000000   1.000000 )  

     reciprocal axes: (cart. coord. in units 2 pi/alat)
               b(1) = (  1.000000  0.000000  0.000000 )  
               b(2) = (  0.000000  1.000000  0.000000 )  
               b(3) = (  0.000000  0.000000  1.000000 )  


     PseudoPot. # 1 for Al read from file:
     /rds/homes/b/bxp912/pp/Al.pbe-nl-kjpaw_psl.1.0.0.UPF
     MD5 check sum: 339dbea23cf3ab9a065ad45c0f9085d7
     Pseudo is Projector augmented-wave + core cor, Zval =  3.0
     Generated using "atomic" code by A. Dal Corso v.5.1
     Shape of augmentation charge: PSQ
     Using radial grid of 1135 points,  4 beta functions with: 
                l(1) =   0
                l(2) =   0
                l(3) =   1
                l(4) =   1
     Q(r) pseudized with 0 coefficients 


     atomic species   valence    mass     pseudopotential
        Al             3.00    26.98200     Al( 1.00)

     No symmetry found



   Cartesian axes

     site n.     atom                  positions (alat units)
         1           Al  tau(   1) = (  -0.0000327   0.0000095   0.0000680  )
         2           Al  tau(   2) = (   0.2500796   0.2498100   0.0000703  )
         3           Al  tau(   3) = (   0.2499071   0.0000305   0.2502955  )
         4           Al  tau(   4) = (  -0.0000200   0.2502187   0.2501837  )
         5           Al  tau(   5) = (   0.0002558   0.0002521   0.4998810  )
         6           Al  tau(   6) = (   0.2501194   0.2498326   0.5000036  )
         7           Al  tau(   7) = (   0.2500278   0.0001539   0.7498880  )
         8           Al  tau(   8) = (   0.0000549   0.2501136   0.7502101  )
         9           Al  tau(   9) = (   0.0002375   0.5001078  -0.0000154  )
        10           Al  tau(  10) = (   0.2501396   0.7501762   0.0004054  )
        11           Al  tau(  11) = (   0.2501891   0.5001088   0.2502510  )
        12           Al  tau(  12) = (   0.0000383   0.7500455   0.2500253  )
        13           Al  tau(  13) = (   0.0001102   0.5001562   0.5000990  )
        14           Al  tau(  14) = (   0.2499640   0.7500632   0.4998706  )
        15           Al  tau(  15) = (   0.2503366   0.4997894   0.7496960  )
        16           Al  tau(  16) = (  -0.0003280   0.7497055   0.7499931  )
        17           Al  tau(  17) = (   0.5002037  -0.0001004  -0.0000387  )
        18           Al  tau(  18) = (   0.7499123   0.2500941  -0.0002332  )
        19           Al  tau(  19) = (   0.7496354  -0.0000959   0.2500771  )
        20           Al  tau(  20) = (   0.4999751   0.2499614   0.2498317  )
        21           Al  tau(  21) = (   0.4999211   0.0002929   0.4999726  )
        22           Al  tau(  22) = (   0.7500684   0.2496958   0.4999523  )
        23           Al  tau(  23) = (   0.7500357  -0.0000687   0.7500257  )
        24           Al  tau(  24) = (   0.5000114   0.2498864   0.7499948  )
        25           Al  tau(  25) = (   0.4998526   0.5001156  -0.0002192  )
        26           Al  tau(  26) = (   0.7497723   0.7500978   0.0002736  )
        27           Al  tau(  27) = (   0.7501007   0.4998018   0.2499462  )
        28           Al  tau(  28) = (   0.5000878   0.7497908   0.2502093  )
        29           Al  tau(  29) = (   0.4996761   0.5001027   0.5000404  )
        30           Al  tau(  30) = (   0.7501658   0.7499872   0.4998547  )
        31           Al  tau(  31) = (   0.7499472   0.5000095   0.7501393  )
        32           Al  tau(  32) = (   0.5000142   0.7499486   0.7499177  )

     number of k points=   172  Marzari-Vanderbilt smearing, width (Ry)=  0.0400

     Number of k-points >= 100: set verbosity='high' to print them.

     Dense  grid:    64589 G-vectors     FFT dimensions: (  50,  50,  50)

     Smooth grid:    63989 G-vectors     FFT dimensions: (  50,  50,  50)

     Estimated max dynamical RAM per process >      72.03 MB

     Estimated total dynamical RAM >       1.41 GB

     Initial potential from superposition of free atoms

     starting charge   95.92671, renormalised to   96.00000
     Starting wfcs are  128 randomized atomic wfcs
     Checking if some PAW data can be deallocated... 

     total cpu time spent up to now is       15.2 secs

     Self-consistent Calculation

     iteration #  1     ecut=    26.00 Ry     beta= 0.10
     Davidson diagonalization with overlap
     ethr =  1.00E-02,  avg # of iterations =  3.0

     Threshold (ethr) on eigenvalues was too large:
     Diagonalizing with lowered threshold

     Davidson diagonalization with overlap
     ethr =  1.91E-04,  avg # of iterations =  4.4

     total cpu time spent up to now is       74.7 secs

     total energy              =   -1264.12161585 Ry
     Harris-Foulkes estimate   =   -1264.12786701 Ry
     estimated scf accuracy    <       0.17961044 Ry

     iteration #  2     ecut=    26.00 Ry     beta= 0.10
     Davidson diagonalization with overlap
     ethr =  1.87E-04,  avg # of iterations =  1.2

     total cpu time spent up to now is       91.5 secs

     total energy              =   -1264.07429403 Ry
     Harris-Foulkes estimate   =   -1264.12240252 Ry
     estimated scf accuracy    <       0.15582734 Ry

     iteration #  3     ecut=    26.00 Ry     beta= 0.10
     Davidson diagonalization with overlap
     ethr =  1.62E-04,  avg # of iterations =  1.0

     total cpu time spent up to now is      107.8 secs

     total energy              =   -1264.07711368 Ry
     Harris-Foulkes estimate   =   -1264.07726537 Ry
     estimated scf accuracy    <       0.00059864 Ry

     iteration #  4     ecut=    26.00 Ry     beta= 0.10
     Davidson diagonalization with overlap
     c_bands:  1 eigenvalues not converged
     c_bands:  2 eigenvalues not converged
     c_bands:  1 eigenvalues not converged
     c_bands:  1 eigenvalues not converged
     c_bands:  1 eigenvalues not converged
     c_bands:  1 eigenvalues not converged
     c_bands:  1 eigenvalues not converged
     c_bands:  1 eigenvalues not converged
     c_bands:  1 eigenvalues not converged
     c_bands:  1 eigenvalues not converged
     c_bands:  1 eigenvalues not converged
     c_bands:  1 eigenvalues not converged
     c_bands:  1 eigenvalues not converged
     c_bands:  1 eigenvalues not converged
     c_bands:  1 eigenvalues not converged
     c_bands:  2 eigenvalues not converged
     c_bands:  1 eigenvalues not converged
     c_bands:  1 eigenvalues not converged
     c_bands:  2 eigenvalues not converged
     c_bands:  1 eigenvalues not converged
     c_bands:  2 eigenvalues not converged
     ethr =  6.24E-07,  avg # of iterations =  8.5

     total cpu time spent up to now is      149.4 secs

     total energy              =   -1264.07773254 Ry
     Harris-Foulkes estimate   =   -1264.07787774 Ry
     estimated scf accuracy    <       0.00038822 Ry

     iteration #  5     ecut=    26.00 Ry     beta= 0.10
     Davidson diagonalization with overlap
     ethr =  4.04E-07,  avg # of iterations =  1.4

     total cpu time spent up to now is      166.5 secs

     total energy              =   -1264.07750795 Ry
     Harris-Foulkes estimate   =   -1264.07774350 Ry
     estimated scf accuracy    <       0.00025140 Ry

     iteration #  6     ecut=    26.00 Ry     beta= 0.10
     Davidson diagonalization with overlap
     ethr =  2.62E-07,  avg # of iterations =  2.3

     total cpu time spent up to now is      197.2 secs

     total energy              =   -1264.07757437 Ry
     Harris-Foulkes estimate   =   -1264.07757313 Ry
     estimated scf accuracy    <       0.00000962 Ry

     iteration #  7     ecut=    26.00 Ry     beta= 0.10
     Davidson diagonalization with overlap
     ethr =  1.00E-08,  avg # of iterations =  5.3

     total cpu time spent up to now is      224.2 secs

     total energy              =   -1264.07756952 Ry
     Harris-Foulkes estimate   =   -1264.07757538 Ry
     estimated scf accuracy    <       0.00000562 Ry

     iteration #  8     ecut=    26.00 Ry     beta= 0.10
     Davidson diagonalization with overlap
     ethr =  5.85E-09,  avg # of iterations =  2.2

     total cpu time spent up to now is      244.0 secs

     End of self-consistent calculation

     Number of k-points >= 100: set verbosity='high' to print the bands.

     the Fermi energy is     7.9250 ev

!    total energy              =   -1264.07757070 Ry
     Harris-Foulkes estimate   =   -1264.07757010 Ry
     estimated scf accuracy    <       0.00000071 Ry

     total all-electron energy =    -15540.646593 Ry

     The total energy is the sum of the following terms:

     one-electron contribution =     101.26360623 Ry
     hartree contribution      =       0.19709291 Ry
     xc contribution           =     -82.91484302 Ry
     ewald contribution        =    -172.93188273 Ry
     one-center paw contrib.   =   -1109.68515976 Ry
     smearing contrib. (-TS)   =      -0.00638433 Ry

     convergence has been achieved in   8 iterations

     Forces acting on atoms (cartesian axes, Ry/au):

     atom    1 type  1   force =    -0.00001798   -0.00002058    0.00000683
     atom    2 type  1   force =    -0.00011531    0.00023293    0.00007466
     atom    3 type  1   force =     0.00021988    0.00001553   -0.00052688
     atom    4 type  1   force =     0.00000603   -0.00021087   -0.00034860
     atom    5 type  1   force =    -0.00045016   -0.00035506    0.00033751
     atom    6 type  1   force =    -0.00018529    0.00037754   -0.00004120
     atom    7 type  1   force =    -0.00019706   -0.00052838    0.00034730
     atom    8 type  1   force =    -0.00001788   -0.00006313   -0.00027443
     atom    9 type  1   force =    -0.00002357   -0.00003078    0.00009134
     atom   10 type  1   force =    -0.00022105   -0.00010114   -0.00069075
     atom   11 type  1   force =    -0.00026914   -0.00029185   -0.00039421
     atom   12 type  1   force =    -0.00016926    0.00000627   -0.00005262
     atom   13 type  1   force =    -0.00017344   -0.00032955   -0.00004275
     atom   14 type  1   force =    -0.00003288    0.00012984    0.00047235
     atom   15 type  1   force =    -0.00052185    0.00039183    0.00053708
     atom   16 type  1   force =     0.00065879    0.00051662    0.00018342
     atom   17 type  1   force =    -0.00037062    0.00007731    0.00004957
     atom   18 type  1   force =     0.00020366   -0.00010949    0.00039541
     atom   19 type  1   force =     0.00056596    0.00022319   -0.00009993
     atom   20 type  1   force =     0.00008825    0.00021996    0.00006740
     atom   21 type  1   force =     0.00019214   -0.00056121    0.00011230
     atom   22 type  1   force =    -0.00007384    0.00060482    0.00018815
     atom   23 type  1   force =     0.00013200   -0.00007135   -0.00014298
     atom   24 type  1   force =     0.00013300    0.00009439   -0.00001671
     atom   25 type  1   force =     0.00007117   -0.00018295    0.00031466
     atom   26 type  1   force =     0.00033631   -0.00022822   -0.00025801
     atom   27 type  1   force =    -0.00016605    0.00009275    0.00011036
     atom   28 type  1   force =    -0.00008812    0.00024575   -0.00010304
     atom   29 type  1   force =     0.00085145   -0.00033172   -0.00010251
     atom   30 type  1   force =    -0.00024092    0.00003942    0.00020273
     atom   31 type  1   force =    -0.00003079   -0.00010318   -0.00036154
     atom   32 type  1   force =    -0.00009341    0.00025133   -0.00003491

     Total force =     0.002779     Total SCF correction =     0.000467
     SCF correction compared to forces is large: reduce conv_thr to get better values


     Computing stress (Cartesian axis) and pressure

          total   stress  (Ry/bohr**3)                   (kbar)     P=   -1.42
  -0.00000968  -0.00000000  -0.00000000         -1.42     -0.00     -0.00
  -0.00000000  -0.00000968   0.00000000         -0.00     -1.42      0.00
  -0.00000000   0.00000000  -0.00000968         -0.00      0.00     -1.42


     Writing output data file fe_scf_fcc_2.save/
 
     init_run     :     13.85s CPU     14.33s WALL (       1 calls)
     electrons    :    214.12s CPU    228.87s WALL (       1 calls)
     forces       :      2.85s CPU      2.97s WALL (       1 calls)
     stress       :      9.66s CPU      9.72s WALL (       1 calls)

     Called by init_run:
     wfcinit      :     13.56s CPU     13.97s WALL (       1 calls)
     potinit      :      0.11s CPU      0.12s WALL (       1 calls)
     hinit0       :      0.15s CPU      0.21s WALL (       1 calls)

     Called by electrons:
     c_bands      :    190.48s CPU    204.41s WALL (       9 calls)
     sum_band     :     22.70s CPU     23.51s WALL (       9 calls)
     v_of_rho     :      0.06s CPU      0.07s WALL (       9 calls)
     newd         :      0.07s CPU      0.07s WALL (       9 calls)
     PAW_pot      :      0.87s CPU      0.88s WALL (       9 calls)
     mix_rho      :      0.02s CPU      0.03s WALL (       9 calls)

     Called by c_bands:
     init_us_2    :      3.65s CPU      3.73s WALL (    3612 calls)
     cegterg      :    180.65s CPU    185.03s WALL (    1548 calls)

     Called by sum_band:
     sum_band:bec :      0.26s CPU      0.26s WALL (    1548 calls)
     addusdens    :      0.04s CPU      0.05s WALL (       9 calls)

     Called by *egterg:
     h_psi        :    117.70s CPU    121.58s WALL (    6777 calls)
     s_psi        :     10.11s CPU     10.19s WALL (    6777 calls)
     g_psi        :      0.43s CPU      0.43s WALL (    5057 calls)
     cdiaghg      :     42.04s CPU     42.21s WALL (    6433 calls)

     Called by h_psi:
     h_psi:pot    :    117.10s CPU    120.97s WALL (    6777 calls)
     h_psi:calbec :     11.24s CPU     11.93s WALL (    6777 calls)
     vloc_psi     :     95.24s CPU     98.35s WALL (    6777 calls)
     add_vuspsi   :     10.54s CPU     10.63s WALL (    6777 calls)

     General routines
     calbec       :     17.46s CPU     18.54s WALL (    9185 calls)
     fft          :      0.21s CPU      0.28s WALL (     142 calls)
     ffts         :      0.01s CPU      0.01s WALL (      18 calls)
     fftw         :    103.76s CPU    107.14s WALL (  608736 calls)
     interpolate  :      0.01s CPU      0.01s WALL (       9 calls)
 
     Parallel routines
     fft_scatt_xy :      9.98s CPU     10.29s WALL (  608896 calls)
     fft_scatt_yz :     52.47s CPU     54.29s WALL (  608896 calls)
 
     PWSCF        :  4m 3.28s CPU     4m20.13s WALL

 
   This run was terminated on:   2: 2:54  12Mar2020            

=------------------------------------------------------------------------------=
   JOB DONE.
=------------------------------------------------------------------------------=
