
     Program PWSCF v.6.3 starts on 12Mar2020 at  1:19:22 

     This program is part of the open-source Quantum ESPRESSO suite
     for quantum simulation of materials; please cite
         "P. Giannozzi et al., J. Phys.:Condens. Matter 21 395502 (2009);
         "P. Giannozzi et al., J. Phys.:Condens. Matter 29 465901 (2017);
          URL http://www.quantum-espresso.org", 
     in publications or presentations arising from this work. More details at
     http://www.quantum-espresso.org/quote

     Parallel version (MPI & OpenMP), running on      20 processor cores
     Number of MPI processes:                20
     Threads/MPI process:                     1

     MPI processes distributed on     1 nodes
     R & G space division:  proc/nbgrp/npool/nimage =      20
     Reading input from wd/kpoints/file_000149.in
Warning: card &IONS ignored
Warning: card ION_DYNAMICS = 'BFGS', ignored
Warning: card / ignored
Warning: card &CELL ignored
Warning: card CELL_DYNAMICS = 'BFGS', ignored
Warning: card CELL_FACTOR = 2.0, ignored
Warning: card PRESS = 0.0, ignored
Warning: card / ignored

     Current dimensions of program PWSCF are:
     Max number of different atomic species (ntypx) = 10
     Max number of k-points (npk) =  40000
     Max angular momentum in pseudopotentials (lmaxx) =  3
     Message from routine read_upf::
     Pseudo file /rds/homes/b/bxp912/pp/Al.pbe-nl-kjpaw_psl.1.0.0.UPF has been successfully fixed on the fly.
To avoid this message in the future you can permanently fix 
 your pseudo files following instructions given in: 
https://gitlab.com/QEF/q-e/blob/master/upftools/how_to_fix_upf.md
               file Al.pbe-nl-kjpaw_psl.1.0.0.UPF: wavefunction(s)  3S 3P renormalized

     Subspace diagonalization in iterative solution of the eigenvalue problem:
     a serial algorithm will be used

 
     Parallelization info
     --------------------
     sticks:   dense  smooth     PW     G-vecs:    dense   smooth      PW
     Min          96      96     27                 3225     3198     487
     Max          98      97     28                 3241     3201     490
     Sum        1941    1933    553                64589    63989    9771
 


     bravais-lattice index     =            0
     lattice parameter (alat)  =      15.2712  a.u.
     unit-cell volume          =    3561.3897 (a.u.)^3
     number of atoms/cell      =           32
     number of atomic types    =            1
     number of electrons       =        96.00
     number of Kohn-Sham states=           58
     kinetic-energy cutoff     =      26.0000  Ry
     charge density cutoff     =     105.0000  Ry
     convergence threshold     =      1.0E-06
     mixing beta               =       0.1000
     number of iterations used =           10  TF        mixing
     Exchange-correlation      = SLA PW PBX PBC ( 1  4  3  4 0 0)

     celldm(1)=  15.271200  celldm(2)=   0.000000  celldm(3)=   0.000000
     celldm(4)=   0.000000  celldm(5)=   0.000000  celldm(6)=   0.000000

     crystal axes: (cart. coord. in units of alat)
               a(1) = (   1.000000   0.000000   0.000000 )  
               a(2) = (   0.000000   1.000000   0.000000 )  
               a(3) = (   0.000000   0.000000   1.000000 )  

     reciprocal axes: (cart. coord. in units 2 pi/alat)
               b(1) = (  1.000000  0.000000  0.000000 )  
               b(2) = (  0.000000  1.000000  0.000000 )  
               b(3) = (  0.000000  0.000000  1.000000 )  


     PseudoPot. # 1 for Al read from file:
     /rds/homes/b/bxp912/pp/Al.pbe-nl-kjpaw_psl.1.0.0.UPF
     MD5 check sum: 339dbea23cf3ab9a065ad45c0f9085d7
     Pseudo is Projector augmented-wave + core cor, Zval =  3.0
     Generated using "atomic" code by A. Dal Corso v.5.1
     Shape of augmentation charge: PSQ
     Using radial grid of 1135 points,  4 beta functions with: 
                l(1) =   0
                l(2) =   0
                l(3) =   1
                l(4) =   1
     Q(r) pseudized with 0 coefficients 


     atomic species   valence    mass     pseudopotential
        Al             3.00    26.98200     Al( 1.00)

     No symmetry found



   Cartesian axes

     site n.     atom                  positions (alat units)
         1           Al  tau(   1) = (  -0.0000327   0.0000095   0.0000680  )
         2           Al  tau(   2) = (   0.2500796   0.2498100   0.0000703  )
         3           Al  tau(   3) = (   0.2499071   0.0000305   0.2502955  )
         4           Al  tau(   4) = (  -0.0000200   0.2502187   0.2501837  )
         5           Al  tau(   5) = (   0.0002558   0.0002521   0.4998810  )
         6           Al  tau(   6) = (   0.2501194   0.2498326   0.5000036  )
         7           Al  tau(   7) = (   0.2500278   0.0001539   0.7498880  )
         8           Al  tau(   8) = (   0.0000549   0.2501136   0.7502101  )
         9           Al  tau(   9) = (   0.0002375   0.5001078  -0.0000154  )
        10           Al  tau(  10) = (   0.2501396   0.7501762   0.0004054  )
        11           Al  tau(  11) = (   0.2501891   0.5001088   0.2502510  )
        12           Al  tau(  12) = (   0.0000383   0.7500455   0.2500253  )
        13           Al  tau(  13) = (   0.0001102   0.5001562   0.5000990  )
        14           Al  tau(  14) = (   0.2499640   0.7500632   0.4998706  )
        15           Al  tau(  15) = (   0.2503366   0.4997894   0.7496960  )
        16           Al  tau(  16) = (  -0.0003280   0.7497055   0.7499931  )
        17           Al  tau(  17) = (   0.5002037  -0.0001004  -0.0000387  )
        18           Al  tau(  18) = (   0.7499123   0.2500941  -0.0002332  )
        19           Al  tau(  19) = (   0.7496354  -0.0000959   0.2500771  )
        20           Al  tau(  20) = (   0.4999751   0.2499614   0.2498317  )
        21           Al  tau(  21) = (   0.4999211   0.0002929   0.4999726  )
        22           Al  tau(  22) = (   0.7500684   0.2496958   0.4999523  )
        23           Al  tau(  23) = (   0.7500357  -0.0000687   0.7500257  )
        24           Al  tau(  24) = (   0.5000114   0.2498864   0.7499948  )
        25           Al  tau(  25) = (   0.4998526   0.5001156  -0.0002192  )
        26           Al  tau(  26) = (   0.7497723   0.7500978   0.0002736  )
        27           Al  tau(  27) = (   0.7501007   0.4998018   0.2499462  )
        28           Al  tau(  28) = (   0.5000878   0.7497908   0.2502093  )
        29           Al  tau(  29) = (   0.4996761   0.5001027   0.5000404  )
        30           Al  tau(  30) = (   0.7501658   0.7499872   0.4998547  )
        31           Al  tau(  31) = (   0.7499472   0.5000095   0.7501393  )
        32           Al  tau(  32) = (   0.5000142   0.7499486   0.7499177  )

     number of k points=    63  Marzari-Vanderbilt smearing, width (Ry)=  0.0300
                       cart. coord. in units 2pi/alat
        k(    1) = (   0.1000000   0.1000000   0.1000000), wk =   0.0320000
        k(    2) = (   0.1000000   0.1000000   0.3000000), wk =   0.0320000
        k(    3) = (   0.1000000   0.1000000  -0.5000000), wk =   0.0320000
        k(    4) = (   0.1000000   0.3000000   0.3000000), wk =   0.0320000
        k(    5) = (   0.1000000   0.3000000  -0.5000000), wk =   0.0320000
        k(    6) = (   0.1000000  -0.5000000  -0.5000000), wk =   0.0320000
        k(    7) = (   0.3000000   0.3000000   0.3000000), wk =   0.0320000
        k(    8) = (   0.3000000   0.3000000  -0.5000000), wk =   0.0320000
        k(    9) = (   0.3000000  -0.5000000  -0.5000000), wk =   0.0320000
        k(   10) = (  -0.5000000  -0.5000000  -0.5000000), wk =   0.0160000
        k(   11) = (  -0.1000000  -0.1000000   0.1000000), wk =   0.0320000
        k(   12) = (  -0.1000000   0.1000000  -0.1000000), wk =   0.0320000
        k(   13) = (   0.1000000  -0.1000000  -0.1000000), wk =   0.0320000
        k(   14) = (  -0.1000000  -0.1000000   0.3000000), wk =   0.0320000
        k(   15) = (  -0.1000000   0.1000000  -0.3000000), wk =   0.0320000
        k(   16) = (   0.1000000  -0.1000000  -0.3000000), wk =   0.0320000
        k(   17) = (   0.3000000  -0.1000000   0.1000000), wk =   0.0320000
        k(   18) = (  -0.3000000  -0.1000000  -0.1000000), wk =   0.0320000
        k(   19) = (   0.3000000   0.1000000  -0.1000000), wk =   0.0320000
        k(   20) = (  -0.3000000   0.1000000   0.1000000), wk =   0.0320000
        k(   21) = (  -0.1000000   0.3000000   0.1000000), wk =   0.0320000
        k(   22) = (  -0.1000000  -0.3000000  -0.1000000), wk =   0.0320000
        k(   23) = (   0.1000000   0.3000000  -0.1000000), wk =   0.0320000
        k(   24) = (   0.1000000  -0.3000000   0.1000000), wk =   0.0320000
        k(   25) = (  -0.1000000   0.1000000   0.5000000), wk =   0.0320000
        k(   26) = (  -0.5000000  -0.1000000   0.1000000), wk =   0.0320000
        k(   27) = (   0.5000000  -0.1000000  -0.1000000), wk =   0.0320000
        k(   28) = (  -0.1000000  -0.5000000   0.1000000), wk =   0.0320000
        k(   29) = (  -0.1000000   0.5000000  -0.1000000), wk =   0.0320000
        k(   30) = (  -0.1000000  -0.3000000   0.3000000), wk =   0.0320000
        k(   31) = (  -0.1000000   0.3000000  -0.3000000), wk =   0.0320000
        k(   32) = (   0.1000000  -0.3000000  -0.3000000), wk =   0.0320000
        k(   33) = (   0.3000000   0.1000000  -0.3000000), wk =   0.0320000
        k(   34) = (  -0.3000000  -0.1000000  -0.3000000), wk =   0.0320000
        k(   35) = (   0.3000000  -0.1000000   0.3000000), wk =   0.0320000
        k(   36) = (  -0.3000000   0.1000000   0.3000000), wk =   0.0320000
        k(   37) = (   0.3000000  -0.3000000   0.1000000), wk =   0.0320000
        k(   38) = (  -0.3000000  -0.3000000  -0.1000000), wk =   0.0320000
        k(   39) = (   0.3000000   0.3000000  -0.1000000), wk =   0.0320000
        k(   40) = (  -0.3000000   0.3000000   0.1000000), wk =   0.0320000
        k(   41) = (  -0.1000000   0.3000000   0.5000000), wk =   0.0320000
        k(   42) = (   0.3000000   0.1000000   0.5000000), wk =   0.0320000
        k(   43) = (   0.3000000  -0.1000000  -0.5000000), wk =   0.0320000
        k(   44) = (  -0.5000000  -0.3000000   0.1000000), wk =   0.0320000
        k(   45) = (   0.5000000  -0.3000000  -0.1000000), wk =   0.0320000
        k(   46) = (  -0.1000000  -0.5000000   0.3000000), wk =   0.0320000
        k(   47) = (  -0.1000000   0.5000000  -0.3000000), wk =   0.0320000
        k(   48) = (   0.3000000  -0.5000000   0.1000000), wk =   0.0320000
        k(   49) = (   0.3000000   0.5000000  -0.1000000), wk =   0.0320000
        k(   50) = (  -0.5000000   0.1000000   0.3000000), wk =   0.0320000
        k(   51) = (   0.5000000  -0.1000000   0.3000000), wk =   0.0320000
        k(   52) = (  -0.5000000   0.1000000   0.5000000), wk =   0.0320000
        k(   53) = (  -0.5000000   0.5000000   0.1000000), wk =   0.0320000
        k(   54) = (  -0.3000000  -0.3000000   0.3000000), wk =   0.0320000
        k(   55) = (  -0.3000000   0.3000000  -0.3000000), wk =   0.0320000
        k(   56) = (   0.3000000  -0.3000000  -0.3000000), wk =   0.0320000
        k(   57) = (  -0.3000000   0.3000000   0.5000000), wk =   0.0320000
        k(   58) = (  -0.5000000  -0.3000000   0.3000000), wk =   0.0320000
        k(   59) = (   0.5000000  -0.3000000  -0.3000000), wk =   0.0320000
        k(   60) = (  -0.3000000  -0.5000000   0.3000000), wk =   0.0320000
        k(   61) = (  -0.3000000   0.5000000  -0.3000000), wk =   0.0320000
        k(   62) = (  -0.5000000   0.3000000   0.5000000), wk =   0.0320000
        k(   63) = (  -0.5000000   0.5000000   0.3000000), wk =   0.0320000

     Dense  grid:    64589 G-vectors     FFT dimensions: (  50,  50,  50)

     Smooth grid:    63989 G-vectors     FFT dimensions: (  50,  50,  50)

     Estimated max dynamical RAM per process >      33.64 MB

     Estimated total dynamical RAM >     672.79 MB

     Initial potential from superposition of free atoms

     starting charge   95.92671, renormalised to   96.00000
     Starting wfcs are  128 randomized atomic wfcs
     Checking if some PAW data can be deallocated... 

     total cpu time spent up to now is        9.0 secs

     Self-consistent Calculation

     iteration #  1     ecut=    26.00 Ry     beta= 0.10
     Davidson diagonalization with overlap
     ethr =  1.00E-02,  avg # of iterations =  3.0

     Threshold (ethr) on eigenvalues was too large:
     Diagonalizing with lowered threshold

     Davidson diagonalization with overlap
     ethr =  1.92E-04,  avg # of iterations =  3.8

     total cpu time spent up to now is       28.5 secs

     total energy              =   -1264.13052140 Ry
     Harris-Foulkes estimate   =   -1264.13682584 Ry
     estimated scf accuracy    <       0.18008103 Ry

     iteration #  2     ecut=    26.00 Ry     beta= 0.10
     Davidson diagonalization with overlap
     ethr =  1.88E-04,  avg # of iterations =  1.0

     total cpu time spent up to now is       34.5 secs

     total energy              =   -1264.08278974 Ry
     Harris-Foulkes estimate   =   -1264.13132407 Ry
     estimated scf accuracy    <       0.15625439 Ry

     iteration #  3     ecut=    26.00 Ry     beta= 0.10
     Davidson diagonalization with overlap
     ethr =  1.63E-04,  avg # of iterations =  1.0

     total cpu time spent up to now is       40.5 secs

     total energy              =   -1264.08564371 Ry
     Harris-Foulkes estimate   =   -1264.08579957 Ry
     estimated scf accuracy    <       0.00060512 Ry

     iteration #  4     ecut=    26.00 Ry     beta= 0.10
     Davidson diagonalization with overlap
     c_bands:  1 eigenvalues not converged
     ethr =  6.30E-07,  avg # of iterations =  5.0

     total cpu time spent up to now is       53.8 secs

     total energy              =   -1264.08626408 Ry
     Harris-Foulkes estimate   =   -1264.08641799 Ry
     estimated scf accuracy    <       0.00037688 Ry

     iteration #  5     ecut=    26.00 Ry     beta= 0.10
     Davidson diagonalization with overlap
     ethr =  3.93E-07,  avg # of iterations =  1.2

     total cpu time spent up to now is       59.9 secs

     total energy              =   -1264.08606445 Ry
     Harris-Foulkes estimate   =   -1264.08627608 Ry
     estimated scf accuracy    <       0.00023999 Ry

     iteration #  6     ecut=    26.00 Ry     beta= 0.10
     Davidson diagonalization with overlap
     ethr =  2.50E-07,  avg # of iterations =  2.3

     total cpu time spent up to now is       68.6 secs

     total energy              =   -1264.08612746 Ry
     Harris-Foulkes estimate   =   -1264.08612565 Ry
     estimated scf accuracy    <       0.00001046 Ry

     iteration #  7     ecut=    26.00 Ry     beta= 0.10
     Davidson diagonalization with overlap
     ethr =  1.09E-08,  avg # of iterations =  3.8

     total cpu time spent up to now is       76.9 secs

     total energy              =   -1264.08612123 Ry
     Harris-Foulkes estimate   =   -1264.08612838 Ry
     estimated scf accuracy    <       0.00000558 Ry

     iteration #  8     ecut=    26.00 Ry     beta= 0.10
     Davidson diagonalization with overlap
     ethr =  5.81E-09,  avg # of iterations =  2.3

     total cpu time spent up to now is       84.7 secs

     End of self-consistent calculation

          k = 0.1000 0.1000 0.1000 (  7986 PWs)   bands (ev):

    -3.1647  -1.3652  -1.3629  -1.3600  -0.4731  -0.4707  -0.4679   0.4144
     0.4168   0.4196   1.2952   1.2955   1.2982   1.2988   1.3001   1.3014
     2.1714   2.1736   2.1748   2.1768   3.0370   3.0377   3.0385   3.9328
     3.9335   3.9343   4.6180   4.6186   4.6192   4.7878   6.2950   6.2953
     6.2983   6.2990   6.3002   6.3014   6.8021   6.8028   6.8034   7.1400
     7.1405   7.1425   7.1438   7.1450   7.1455   7.9950   7.9974   8.0002
     8.4427   8.4434   8.4451   8.4460   8.4478   8.4494   8.8354   8.8360
     8.8372   8.8385

          k = 0.1000 0.1000 0.3000 (  7974 PWs)   bands (ev):

    -2.9835  -2.0807  -1.1843  -1.1832  -0.2945  -0.2936  -0.2921  -0.2898
     0.5911   0.5921   0.5932   0.5959   1.4722   1.4741   1.4762   2.3457
     2.3467   2.3476   2.3489   2.3513   3.1915   3.2098   3.2157   3.2168
     4.1058   4.7873   4.7878   4.9075   4.9086   4.9580   4.9587   5.6298
     5.6303   5.7471   5.7483   5.8152   6.4909   6.4920   6.6330   6.9735
     6.9741   7.3204   7.3214   7.3249   7.3262   7.4806   7.4815   7.7588
     7.7598   8.1645   8.1651   8.2335   8.2336   8.3268   8.5433   8.7164
     8.7171   9.4679

          k = 0.1000 0.1000-0.5000 (  7978 PWs)   bands (ev):

    -2.6230  -2.6204  -0.8284  -0.8277  -0.8259  -0.8243   0.0605   0.0613
     0.0631   0.0647   0.9454   0.9481   1.8169   1.8182   1.8231   1.8237
     1.8258   1.8266   2.6950   2.6977   3.5554   3.5566   3.5567   3.5578
     4.4149   4.4162   4.4162   4.4173   5.1234   5.1239   5.1261   5.1268
     5.2945   5.2958   6.1484   6.1490   6.1497   6.1506   6.8187   6.8193
     6.8213   6.8230   7.0006   7.0020   7.3086   7.3091   7.3112   7.3120
     7.6579   7.6584   7.6604   7.6621   9.0737   9.0744   9.0760   9.0778
     9.3501   9.3516

          k = 0.1000 0.3000 0.3000 (  7962 PWs)   bands (ev):

    -2.8025  -1.9025  -1.8993  -1.0057  -1.0043  -0.1169  -0.1152  -0.1123
     0.7663   0.7679   0.7685   0.7708   0.7735   1.6467   1.6477   1.6505
     2.5199   2.5231   3.3636   3.3648   3.3802   3.3814   3.3871   3.3901
     4.2230   4.2262   4.2488   4.2785   4.2797   4.9563   5.0668   5.0679
     5.7913   5.7948   5.9511   5.9542   5.9611   5.9623   5.9844   6.6528
     6.7671   6.7692   6.8004   6.8037   6.8374   7.1394   8.0693   8.0716
     8.3160   8.3196   8.4923   8.4940   8.7061   8.7075   8.9133   9.1692
     9.1711   9.3275

          k = 0.1000 0.3000-0.5000 (  7974 PWs)   bands (ev):

    -2.4425  -2.4398  -1.5432  -1.5405  -0.6496  -0.6469   0.2362   0.2393
     0.2413   0.2426   1.1182   1.1213   1.1227   1.1241   1.9920   1.9932
     2.8630   2.8642   2.8676   2.8703   3.7077   3.7104   3.7233   3.7256
     3.7279   3.7293   4.5757   4.5768   4.6184   4.6196   5.2915   5.2943
     5.4276   5.4287   5.4521   5.4546   5.4655   5.4669   6.1557   6.1584
     6.2906   6.2934   7.1684   7.1698   7.4145   7.4167   8.0166   8.0179
     8.0797   8.0808   8.4004   8.4030   8.6626   8.6655   9.0012   9.0037
     9.5475   9.5491

          k = 0.1000-0.5000-0.5000 (  7944 PWs)   bands (ev):

    -2.0831  -2.0820  -2.0797  -2.0782  -0.2946  -0.2935  -0.2912  -0.2897
     0.5911   0.5921   0.5945   0.5960   2.3378   2.3393   2.3399   2.3409
     2.3417   2.3439   2.3449   2.3456   4.0586   4.0602   4.0608   4.0620
     4.0625   4.0648   4.0658   4.0665   4.9593   4.9606   4.9612   4.9622
     4.9633   4.9652   4.9663   4.9669   5.6219   5.6231   5.6257   5.6272
     6.6147   6.6152   6.6166   6.6173   7.9084   7.9093   7.9112   7.9124
     8.3451   8.3457   8.3469   8.3477   9.1892   9.1898   9.1910   9.1918
     9.8223   9.8252

          k = 0.3000 0.3000 0.3000 (  7997 PWs)   bands (ev):

    -2.6217  -1.7238  -1.7215  -1.7186  -0.8290  -0.8266  -0.8238   0.0629
     0.9421   0.9445   0.9473   1.8200   1.8203   1.8230   1.8236   1.8248
     1.8262   2.6943   2.6950   2.6958   3.5360   3.5367   3.5375   4.3917
     4.3920   4.3948   4.3954   4.3967   4.3980   4.4070   4.4094   4.4123
     5.2800   5.2824   5.2854   5.2991   5.2999   5.3007   6.9593   6.9598
     6.9613   6.9627   6.9639   6.9645   7.8133   7.8138   7.8153   7.8167
     7.8179   7.8184   7.8544   8.8311   8.8322   8.8334   9.5347   9.5352
     9.5358   9.7491

          k = 0.3000 0.3000-0.5000 (  7950 PWs)   bands (ev):

    -2.2622  -2.2595  -1.3645  -1.3638  -1.3620  -1.3604  -0.4714  -0.4687
     1.2948   1.2955   1.2973   1.2989   2.1664   2.1677   2.1711   2.1718
     2.1739   2.1746   3.0360   3.0372   3.0373   3.0384   3.8793   3.8798
     3.8818   3.8827   3.8906   3.8917   4.7243   4.7250   4.7268   4.7284
     4.7944   4.7970   5.6429   5.6442   5.6443   5.6454   6.4867   6.4873
     6.4880   6.4890   7.3039   7.3045   7.3064   7.3080   8.1138   8.1145
     8.1150   8.1160   8.9859   8.9872   8.9875   8.9886   9.0279   9.0293
     9.2736   9.2744

          k = 0.3000-0.5000-0.5000 (  7960 PWs)   bands (ev):

    -1.9032  -1.9022  -1.8998  -1.8984  -1.0073  -1.0062  -1.0039  -1.0024
     1.6454   1.6465   1.6489   1.6503   2.5120   2.5135   2.5141   2.5151
     2.5160   2.5181   2.5191   2.5198   3.3787   3.3803   3.3809   3.3819
     3.3826   3.3849   3.3859   3.3865   4.2208   4.2219   4.2244   4.2259
     5.9721   5.9736   5.9742   5.9752   5.9762   5.9783   5.9794   5.9800
     6.8108   6.8114   6.8126   6.8134   7.6667   7.6672   7.6684   7.6692
     8.4715   8.4733   8.4740   8.4751   8.4760   8.4783   8.4794   8.4803
     9.5962   9.5987

          k =-0.5000-0.5000-0.5000 (  8024 PWs)   bands (ev):

    -1.5467  -1.5459  -1.5430  -1.5425  -1.5415  -1.5395  -1.5392  -1.5364
     2.8558   2.8562   2.8576   2.8582   2.8594   2.8603   2.8606   2.8616
     2.8619   2.8625   2.8628   2.8633   2.8638   2.8642   2.8647   2.8648
     2.8657   2.8667   2.8671   2.8675   2.8684   2.8699   2.8714   2.8734
     7.1493   7.1503   7.1510   7.1515   7.1528   7.1533   7.1538   7.1541
     7.1542   7.1549   7.1560   7.1566   7.1573   7.1575   7.1577   7.1585
     7.1589   7.1596   7.1599   7.1602   7.1611   7.1618   7.1636   7.1638
    11.3552  11.3571

          k =-0.1000-0.1000 0.1000 (  7986 PWs)   bands (ev):

    -3.1647  -1.3647  -1.3629  -1.3606  -0.4725  -0.4707  -0.4684   0.4149
     0.4167   0.4191   1.2942   1.2971   1.2974   1.2987   1.3001   1.3016
     2.1719   2.1737   2.1747   2.1762   3.0373   3.0377   3.0382   3.9331
     3.9335   3.9340   4.6182   4.6186   4.6190   4.7878   6.2939   6.2970
     6.2978   6.2985   6.3003   6.3017   6.8024   6.8028   6.8032   7.1400
     7.1418   7.1426   7.1433   7.1443   7.1455   7.9955   7.9973   7.9997
     8.4425   8.4437   8.4452   8.4465   8.4475   8.4491   8.8359   8.8361
     8.8377   8.8381

          k =-0.1000 0.1000-0.1000 (  7986 PWs)   bands (ev):

    -3.1647  -1.3652  -1.3627  -1.3603  -0.4730  -0.4706  -0.4681   0.4145
     0.4169   0.4194   1.2952   1.2958   1.2970   1.2982   1.3006   1.3023
     2.1714   2.1739   2.1747   2.1765   3.0369   3.0377   3.0385   3.9327
     3.9335   3.9343   4.6179   4.6186   4.6193   4.7878   6.2952   6.2958
     6.2969   6.2982   6.3008   6.3023   6.8021   6.8028   6.8035   7.1402
     7.1411   7.1417   7.1437   7.1449   7.1457   7.9950   7.9975   8.0000
     8.4425   8.4435   8.4449   8.4464   8.4478   8.4493   8.8348   8.8356
     8.8370   8.8385

          k = 0.1000-0.1000-0.1000 (  7986 PWs)   bands (ev):

    -3.1647  -1.3649  -1.3633  -1.3600  -0.4727  -0.4712  -0.4678   0.4148
     0.4163   0.4197   1.2950   1.2960   1.2975   1.2986   1.2999   1.3022
     2.1718   2.1733   2.1747   2.1768   3.0368   3.0377   3.0386   3.9326
     3.9335   3.9344   4.6179   4.6186   4.6193   4.7878   6.2948   6.2961
     6.2974   6.2986   6.2998   6.3025   6.8020   6.8028   6.8035   7.1398
     7.1414   7.1419   7.1438   7.1443   7.1461   7.9954   7.9969   8.0003
     8.4430   8.4433   8.4446   8.4462   8.4475   8.4497   8.8341   8.8363
     8.8373   8.8387

          k =-0.1000-0.1000 0.3000 (  7974 PWs)   bands (ev):

    -2.9835  -2.0807  -1.1843  -1.1832  -0.2944  -0.2936  -0.2916  -0.2904
     0.5906   0.5925   0.5937   0.5954   1.4722   1.4739   1.4764   2.3457
     2.3462   2.3479   2.3491   2.3514   3.1915   3.2096   3.2156   3.2170
     4.1058   4.7873   4.7878   4.9075   4.9087   4.9580   4.9587   5.6298
     5.6303   5.7471   5.7483   5.8152   6.4909   6.4920   6.6330   6.9735
     6.9741   7.3204   7.3212   7.3250   7.3264   7.4806   7.4815   7.7588
     7.7598   8.1645   8.1651   8.2335   8.2336   8.3268   8.5433   8.7164
     8.7170   9.4677

          k =-0.1000 0.1000-0.3000 (  7974 PWs)   bands (ev):

    -2.9835  -2.0807  -1.1847  -1.1828  -0.2948  -0.2923  -0.2921  -0.2907
     0.5903   0.5922   0.5942   0.5956   1.4726   1.4743   1.4756   2.3455
     2.3464   2.3478   2.3498   2.3509   3.1915   3.2094   3.2151   3.2176
     4.1058   4.7870   4.7881   4.9070   4.9091   4.9576   4.9591   5.6295
     5.6306   5.7467   5.7487   5.8152   6.4905   6.4924   6.6330   6.9732
     6.9744   7.3207   7.3217   7.3242   7.3263   7.4802   7.4819   7.7583
     7.7603   8.1642   8.1654   8.2335   8.2336   8.3268   8.5433   8.7161
     8.7173   9.4670

          k = 0.1000-0.1000-0.3000 (  7974 PWs)   bands (ev):

    -2.9835  -2.0807  -1.1847  -1.1828  -0.2946  -0.2943  -0.2918  -0.2893
     0.5912   0.5926   0.5936   0.5947   1.4719   1.4735   1.4771   2.3460
     2.3462   2.3478   2.3488   2.3514   3.1915   3.2099   3.2152   3.2171
     4.1058   4.7870   4.7881   4.9070   4.9091   4.9576   4.9591   5.6295
     5.6306   5.7466   5.7487   5.8152   6.4905   6.4924   6.6330   6.9732
     6.9744   7.3194   7.3216   7.3255   7.3265   7.4802   7.4819   7.7583
     7.7603   8.1642   8.1654   8.2335   8.2336   8.3268   8.5433   8.7161
     8.7173   9.4672

          k = 0.3000-0.1000 0.1000 (  7974 PWs)   bands (ev):

    -2.9835  -2.0807  -1.1849  -1.1827  -0.2939  -0.2934  -0.2928  -0.2899
     0.5895   0.5934   0.5942   0.5951   1.4729   1.4742   1.4755   2.3453
     2.3465   2.3476   2.3500   2.3508   3.1915   3.2091   3.2157   3.2174
     4.1058   4.7873   4.7878   4.9069   4.9092   4.9581   4.9587   5.6298
     5.6303   5.7465   5.7488   5.8152   6.4903   6.4926   6.6330   6.9735
     6.9740   7.3206   7.3219   7.3243   7.3262   7.4807   7.4814   7.7588
     7.7597   8.1641   8.1654   8.2336   8.2336   8.3268   8.5433   8.7160
     8.7174   9.4681

          k =-0.3000-0.1000-0.1000 (  7974 PWs)   bands (ev):

    -2.9835  -2.0807  -1.1853  -1.1822  -0.2950  -0.2932  -0.2924  -0.2894
     0.5895   0.5920   0.5945   0.5962   1.4730   1.4743   1.4752   2.3445
     2.3463   2.3487   2.3497   2.3509   3.1915   3.2090   3.2150   3.2182
     4.1058   4.7871   4.7880   4.9064   4.9097   4.9577   4.9590   5.6296
     5.6306   5.7460   5.7493   5.8152   6.4899   6.4930   6.6330   6.9733
     6.9743   7.3203   7.3223   7.3238   7.3266   7.4804   7.4818   7.7584
     7.7601   8.1638   8.1657   8.2335   8.2336   8.3268   8.5433   8.7157
     8.7177   9.4663

          k = 0.3000 0.1000-0.1000 (  7974 PWs)   bands (ev):

    -2.9835  -2.0807  -1.1849  -1.1827  -0.2943  -0.2932  -0.2921  -0.2904
     0.5902   0.5931   0.5938   0.5951   1.4728   1.4742   1.4755   2.3454
     2.3469   2.3480   2.3492   2.3507   3.1915   3.2094   3.2155   3.2174
     4.1058   4.7873   4.7878   4.9069   4.9092   4.9581   4.9587   5.6298
     5.6303   5.7465   5.7488   5.8152   6.4903   6.4926   6.6330   6.9735
     6.9740   7.3206   7.3217   7.3243   7.3263   7.4807   7.4814   7.7588
     7.7597   8.1641   8.1654   8.2335   8.2336   8.3268   8.5433   8.7160
     8.7174   9.4684

          k =-0.3000 0.1000 0.1000 (  7974 PWs)   bands (ev):

    -2.9835  -2.0807  -1.1853  -1.1822  -0.2947  -0.2938  -0.2922  -0.2893
     0.5904   0.5919   0.5937   0.5962   1.4727   1.4738   1.4760   2.3448
     2.3468   2.3483   2.3489   2.3513   3.1915   3.2095   3.2147   3.2180
     4.1058   4.7871   4.7880   4.9064   4.9097   4.9577   4.9590   5.6296
     5.6305   5.7460   5.7493   5.8152   6.4899   6.4930   6.6330   6.9733
     6.9743   7.3196   7.3223   7.3243   7.3267   7.4803   7.4818   7.7584
     7.7601   8.1638   8.1658   8.2335   8.2336   8.3268   8.5433   8.7157
     8.7177   9.4666

          k =-0.1000 0.3000 0.1000 (  7974 PWs)   bands (ev):

    -2.9835  -2.0807  -1.1855  -1.1821  -0.2953  -0.2931  -0.2931  -0.2884
     0.5904   0.5918   0.5944   0.5956   1.4719   1.4739   1.4767   2.3442
     2.3469   2.3485   2.3495   2.3511   3.1915   3.2097   3.2146   3.2179
     4.1058   4.7875   4.7876   4.9063   4.9099   4.9583   4.9584   5.6300
     5.6301   5.7459   5.7495   5.8152   6.4897   6.4932   6.6330   6.9737
     6.9738   7.3199   7.3209   7.3249   7.3273   7.4810   7.4811   7.7592
     7.7593   8.1638   8.1658   8.2335   8.2336   8.3268   8.5433   8.7157
     8.7178   9.4660

          k =-0.1000-0.3000-0.1000 (  7974 PWs)   bands (ev):

    -2.9835  -2.0807  -1.1858  -1.1818  -0.2955  -0.2939  -0.2925  -0.2881
     0.5899   0.5925   0.5941   0.5957   1.4719   1.4742   1.4764   2.3447
     2.3462   2.3484   2.3499   2.3510   3.1915   3.2095   3.2145   3.2182
     4.1058   4.7873   4.7878   4.9059   4.9102   4.9580   4.9587   5.6298
     5.6303   5.7456   5.7498   5.8152   6.4894   6.4935   6.6330   6.9735
     6.9741   7.3197   7.3217   7.3238   7.3278   7.4807   7.4814   7.7588
     7.7597   8.1636   8.1660   8.2335   8.2336   8.3268   8.5433   8.7155
     8.7179   9.4657

          k = 0.1000 0.3000-0.1000 (  7974 PWs)   bands (ev):

    -2.9835  -2.0807  -1.1855  -1.1821  -0.2953  -0.2934  -0.2914  -0.2899
     0.5902   0.5923   0.5938   0.5959   1.4727   1.4739   1.4759   2.3447
     2.3469   2.3483   2.3493   2.3511   3.1915   3.2093   3.2146   3.2183
     4.1058   4.7875   4.7876   4.9063   4.9099   4.9583   4.9584   5.6300
     5.6301   5.7459   5.7495   5.8152   6.4897   6.4932   6.6330   6.9737
     6.9738   7.3200   7.3219   7.3239   7.3271   7.4810   7.4811   7.7592
     7.7593   8.1638   8.1658   8.2335   8.2336   8.3268   8.5433   8.7157
     8.7178   9.4670

          k = 0.1000-0.3000 0.1000 (  7974 PWs)   bands (ev):

    -2.9835  -2.0807  -1.1858  -1.1818  -0.2960  -0.2933  -0.2913  -0.2893
     0.5896   0.5924   0.5938   0.5963   1.4724   1.4740   1.4761   2.3446
     2.3462   2.3482   2.3496   2.3516   3.1915   3.2093   3.2146   3.2183
     4.1058   4.7873   4.7878   4.9059   4.9102   4.9580   4.9587   5.6298
     5.6303   5.7456   5.7498   5.8152   6.4894   6.4935   6.6330   6.9735
     6.9741   7.3196   7.3221   7.3238   7.3274   7.4807   7.4815   7.7588
     7.7597   8.1636   8.1659   8.2335   8.2336   8.3268   8.5433   8.7155
     8.7179   9.4657

          k =-0.1000 0.1000 0.5000 (  7978 PWs)   bands (ev):

    -2.6230  -2.6204  -0.8290  -0.8270  -0.8263  -0.8239   0.0600   0.0619
     0.0626   0.0650   0.9454   0.9481   1.8166   1.8180   1.8230   1.8241
     1.8256   1.8269   2.6950   2.6977   3.5550   3.5562   3.5570   3.5583
     4.4145   4.4157   4.4165   4.4178   5.1231   5.1242   5.1259   5.1270
     5.2945   5.2958   6.1480   6.1492   6.1498   6.1509   6.8181   6.8200
     6.8209   6.8233   7.0006   7.0020   7.3082   7.3095   7.3110   7.3122
     7.6577   7.6588   7.6604   7.6619   9.0735   9.0746   9.0761   9.0776
     9.3498   9.3510

          k =-0.5000-0.1000 0.1000 (  7978 PWs)   bands (ev):

    -2.6232  -2.6203  -0.8296  -0.8269  -0.8257  -0.8241   0.0593   0.0621
     0.0632   0.0649   0.9453   0.9482   1.8168   1.8179   1.8232   1.8237
     1.8257   1.8270   2.6949   2.6978   3.5548   3.5562   3.5571   3.5584
     4.4143   4.4157   4.4166   4.4179   5.1234   5.1236   5.1260   5.1272
     5.2944   5.2959   6.1483   6.1490   6.1493   6.1511   6.8174   6.8202
     6.8215   6.8231   7.0006   7.0020   7.3085   7.3090   7.3110   7.3124
     7.6571   7.6589   7.6608   7.6619   9.0730   9.0747   9.0765   9.0776
     9.3501   9.3516

          k = 0.5000-0.1000-0.1000 (  7978 PWs)   bands (ev):

    -2.6232  -2.6203  -0.8299  -0.8265  -0.8260  -0.8238   0.0590   0.0624
     0.0629   0.0652   0.9453   0.9482   1.8169   1.8177   1.8227   1.8241
     1.8260   1.8268   2.6949   2.6978   3.5543   3.5558   3.5577   3.5588
     4.4138   4.4153   4.4172   4.4184   5.1230   5.1240   5.1261   5.1270
     5.2944   5.2959   6.1480   6.1492   6.1498   6.1508   6.8172   6.8206
     6.8210   6.8235   7.0006   7.0020   7.3081   7.3094   7.3112   7.3123
     7.6574   7.6588   7.6600   7.6626   9.0732   9.0745   9.0757   9.0784
     9.3501   9.3508

          k =-0.1000-0.5000 0.1000 (  7978 PWs)   bands (ev):

    -2.6221  -2.6214  -0.8286  -0.8281  -0.8256  -0.8238   0.0603   0.0608
     0.0633   0.0651   0.9464   0.9471   1.8170   1.8177   1.8243   1.8245
     1.8251   1.8256   2.6960   2.6967   3.5548   3.5549   3.5581   3.5587
     4.4143   4.4144   4.4176   4.4182   5.1246   5.1247   5.1254   5.1255
     5.2950   5.2953   6.1492   6.1493   6.1496   6.1497   6.8185   6.8190
     6.8215   6.8233   7.0011   7.0015   7.3098   7.3099   7.3106   7.3107
     7.6580   7.6593   7.6605   7.6611   9.0738   9.0750   9.0762   9.0768
     9.3509   9.3513

          k =-0.1000 0.5000-0.1000 (  7978 PWs)   bands (ev):

    -2.6221  -2.6214  -0.8289  -0.8283  -0.8250  -0.8240   0.0600   0.0606
     0.0639   0.0650   0.9464   0.9471   1.8170   1.8175   1.8244   1.8247
     1.8249   1.8258   2.6960   2.6967   3.5544   3.5547   3.5585   3.5589
     4.4139   4.4142   4.4181   4.4184   5.1247   5.1247   5.1249   5.1259
     5.2950   5.2953   6.1488   6.1492   6.1493   6.1504   6.8182   6.8189
     6.8220   6.8232   7.0011   7.0015   7.3098   7.3099   7.3101   7.3112
     7.6582   7.6588   7.6604   7.6614   9.0741   9.0746   9.0761   9.0770
     9.3508   9.3513

          k =-0.1000-0.3000 0.3000 (  7962 PWs)   bands (ev):

    -2.8025  -1.9020  -1.8998  -1.0057  -1.0043  -0.1176  -0.1141  -0.1125
     0.7667   0.7677   0.7685   0.7714   0.7728   1.6469   1.6479   1.6501
     2.5204   2.5226   3.3639   3.3645   3.3804   3.3808   3.3876   3.3899
     4.2235   4.2258   4.2488   4.2788   4.2793   4.9563   5.0670   5.0676
     5.7918   5.7942   5.9515   5.9536   5.9614   5.9622   5.9844   6.6528
     6.7675   6.7689   6.8009   6.8032   6.8374   7.1394   8.0697   8.0713
     8.3165   8.3190   8.4926   8.4938   8.7065   8.7071   8.9133   9.1697
     9.1706   9.3275

          k =-0.1000 0.3000-0.3000 (  7962 PWs)   bands (ev):

    -2.8025  -1.9020  -1.8998  -1.0052  -1.0049  -0.1172  -0.1142  -0.1129
     0.7669   0.7677   0.7692   0.7707   0.7725   1.6468   1.6480   1.6502
     2.5204   2.5226   3.3640   3.3646   3.3803   3.3811   3.3875   3.3897
     4.2235   4.2258   4.2488   4.2788   4.2793   4.9563   5.0670   5.0676
     5.7918   5.7942   5.9515   5.9538   5.9614   5.9621   5.9843   6.6528
     6.7675   6.7689   6.8009   6.8032   6.8374   7.1394   8.0697   8.0713
     8.3165   8.3190   8.4926   8.4938   8.7065   8.7072   8.9133   9.1697
     9.1706   9.3275

          k = 0.1000-0.3000-0.3000 (  7962 PWs)   bands (ev):

    -2.8025  -1.9025  -1.8993  -1.0060  -1.0040  -0.1177  -0.1148  -0.1118
     0.7663   0.7668   0.7690   0.7717   0.7733   1.6469   1.6482   1.6499
     2.5199   2.5231   3.3636   3.3648   3.3800   3.3812   3.3872   3.3904
     4.2230   4.2262   4.2489   4.2785   4.2796   4.9563   5.0668   5.0679
     5.7913   5.7948   5.9509   5.9541   5.9612   5.9626   5.9844   6.6528
     6.7671   6.7692   6.8004   6.8037   6.8374   7.1394   8.0693   8.0716
     8.3160   8.3196   8.4923   8.4940   8.7061   8.7075   8.9133   9.1692
     9.1711   9.3275

          k = 0.3000 0.1000-0.3000 (  7962 PWs)   bands (ev):

    -2.8025  -1.9026  -1.8992  -1.0057  -1.0043  -0.1170  -0.1147  -0.1126
     0.7655   0.7680   0.7687   0.7715   0.7733   1.6461   1.6477   1.6512
     2.5198   2.5232   3.3642   3.3642   3.3807   3.3810   3.3869   3.3901
     4.2229   4.2264   4.2487   4.2790   4.2793   4.9562   5.0673   5.0674
     5.7911   5.7949   5.9510   5.9545   5.9616   5.9617   5.9843   6.6528
     6.7670   6.7692   6.8004   6.8039   6.8374   7.1394   8.0692   8.0717
     8.3158   8.3197   8.4923   8.4941   8.7067   8.7068   8.9133   9.1701
     9.1702   9.3275

          k =-0.3000-0.1000-0.3000 (  7962 PWs)   bands (ev):

    -2.8025  -1.9029  -1.8989  -1.0057  -1.0043  -0.1178  -0.1143  -0.1122
     0.7653   0.7672   0.7699   0.7712   0.7734   1.6465   1.6478   1.6507
     2.5194   2.5235   3.3639   3.3645   3.3802   3.3811   3.3867   3.3907
     4.2226   4.2267   4.2488   4.2788   4.2794   4.9562   5.0670   5.0676
     5.7908   5.7952   5.9507   5.9546   5.9614   5.9621   5.9844   6.6528
     6.7669   6.7694   6.8000   6.8042   6.8374   7.1394   8.0690   8.0720
     8.3154   8.3201   8.4921   8.4942   8.7064   8.7072   8.9133   9.1696
     9.1707   9.3275

          k = 0.3000-0.1000 0.3000 (  7962 PWs)   bands (ev):

    -2.8025  -1.9029  -1.8989  -1.0060  -1.0040  -0.1175  -0.1143  -0.1125
     0.7657   0.7674   0.7689   0.7713   0.7738   1.6461   1.6479   1.6510
     2.5194   2.5235   3.3639   3.3645   3.3805   3.3812   3.3866   3.3905
     4.2226   4.2267   4.2487   4.2788   4.2794   4.9562   5.0670   5.0676
     5.7908   5.7952   5.9507   5.9548   5.9614   5.9620   5.9843   6.6528
     6.7668   6.7694   6.8000   6.8042   6.8374   7.1394   8.0690   8.0720
     8.3154   8.3201   8.4921   8.4942   8.7064   8.7071   8.9133   9.1696
     9.1707   9.3275

          k =-0.3000 0.1000 0.3000 (  7962 PWs)   bands (ev):

    -2.8025  -1.9026  -1.8992  -1.0052  -1.0049  -0.1172  -0.1152  -0.1118
     0.7659   0.7680   0.7696   0.7703   0.7733   1.6468   1.6477   1.6505
     2.5198   2.5232   3.3642   3.3643   3.3804   3.3808   3.3870   3.3904
     4.2229   4.2264   4.2488   4.2790   4.2791   4.9563   5.0673   5.0674
     5.7911   5.7949   5.9508   5.9543   5.9616   5.9620   5.9843   6.6528
     6.7671   6.7693   6.8003   6.8038   6.8374   7.1394   8.0692   8.0717
     8.3158   8.3197   8.4923   8.4941   8.7067   8.7068   8.9133   9.1701
     9.1702   9.3276

          k = 0.3000-0.3000 0.1000 (  7962 PWs)   bands (ev):

    -2.8025  -1.9019  -1.8999  -1.0057  -1.0043  -0.1159  -0.1148  -0.1136
     0.7667   0.7672   0.7699   0.7707   0.7726   1.6461   1.6474   1.6515
     2.5205   2.5225   3.3636   3.3649   3.3803   3.3817   3.3874   3.3894
     4.2237   4.2256   4.2487   4.2784   4.2799   4.9562   5.0667   5.0680
     5.7919   5.7941   5.9518   5.9538   5.9609   5.9622   5.9843   6.6528
     6.7675   6.7688   6.8011   6.8031   6.8374   7.1394   8.0698   8.0712
     8.3166   8.3189   8.4926   8.4937   8.7060   8.7076   8.9133   9.1691
     9.1713   9.3276

          k =-0.3000-0.3000-0.1000 (  7962 PWs)   bands (ev):

    -2.8025  -1.9015  -1.9003  -1.0052  -1.0049  -0.1164  -0.1150  -0.1129
     0.7670   0.7673   0.7693   0.7707   0.7727   1.6463   1.6477   1.6509
     2.5209   2.5221   3.3639   3.3646   3.3804   3.3811   3.3880   3.3891
     4.2241   4.2252   4.2487   4.2788   4.2794   4.9562   5.0670   5.0677
     5.7924   5.7936   5.9521   5.9533   5.9613   5.9620   5.9843   6.6528
     6.7678   6.7685   6.8015   6.8027   6.8374   7.1394   8.0701   8.0709
     8.3171   8.3184   8.4929   8.4935   8.7064   8.7072   8.9133   9.1696
     9.1707   9.3276

          k = 0.3000 0.3000-0.1000 (  7962 PWs)   bands (ev):

    -2.8025  -1.9014  -1.9003  -1.0060  -1.0040  -0.1161  -0.1146  -0.1136
     0.7668   0.7674   0.7693   0.7706   0.7730   1.6463   1.6479   1.6508
     2.5209   2.5220   3.3638   3.3645   3.3806   3.3812   3.3879   3.3891
     4.2240   4.2252   4.2488   4.2788   4.2794   4.9563   5.0670   5.0677
     5.7924   5.7936   5.9522   5.9533   5.9613   5.9619   5.9844   6.6528
     6.7678   6.7685   6.8015   6.8027   6.8374   7.1394   8.0701   8.0709
     8.3171   8.3184   8.4929   8.4935   8.7064   8.7072   8.9133   9.1696
     9.1707   9.3275

          k =-0.3000 0.3000 0.1000 (  7962 PWs)   bands (ev):

    -2.8025  -1.9019  -1.8999  -1.0057  -1.0043  -0.1164  -0.1155  -0.1123
     0.7662   0.7683   0.7696   0.7701   0.7729   1.6466   1.6482   1.6502
     2.5205   2.5225   3.3635   3.3649   3.3800   3.3814   3.3876   3.3897
     4.2236   4.2256   4.2488   4.2784   4.2797   4.9563   5.0667   5.0680
     5.7919   5.7941   5.9517   5.9536   5.9611   5.9624   5.9844   6.6528
     6.7675   6.7688   6.8010   6.8031   6.8374   7.1394   8.0698   8.0712
     8.3166   8.3189   8.4926   8.4937   8.7060   8.7076   8.9133   9.1690
     9.1713   9.3276

          k =-0.1000 0.3000 0.5000 (  7974 PWs)   bands (ev):

    -2.4425  -2.4398  -1.5432  -1.5405  -0.6496  -0.6469   0.2365   0.2395
     0.2406   0.2428   1.1189   1.1207   1.1226   1.1242   1.9920   1.9932
     2.8631   2.8640   2.8678   2.8701   3.7077   3.7104   3.7234   3.7260
     3.7277   3.7289   4.5757   4.5768   4.6184   4.6196   5.2915   5.2943
     5.4276   5.4287   5.4521   5.4547   5.4654   5.4667   6.1557   6.1584
     6.2906   6.2934   7.1684   7.1698   7.4145   7.4167   8.0166   8.0179
     8.0797   8.0808   8.4004   8.4030   8.6626   8.6655   9.0012   9.0037
     9.5475   9.5491

          k = 0.3000 0.1000 0.5000 (  7974 PWs)   bands (ev):

    -2.4425  -2.4398  -1.5432  -1.5405  -0.6496  -0.6469   0.2375   0.2388
     0.2410   0.2420   1.1180   1.1211   1.1225   1.1248   1.9920   1.9932
     2.8632   2.8644   2.8674   2.8701   3.7077   3.7105   3.7232   3.7260
     3.7278   3.7291   4.5757   4.5768   4.6183   4.6196   5.2915   5.2943
     5.4276   5.4287   5.4521   5.4547   5.4656   5.4669   6.1557   6.1584
     6.2907   6.2934   7.1684   7.1698   7.4144   7.4167   8.0166   8.0179
     8.0797   8.0808   8.4004   8.4030   8.6626   8.6655   9.0012   9.0037
     9.5475   9.5491

          k = 0.3000-0.1000-0.5000 (  7974 PWs)   bands (ev):

    -2.4425  -2.4398  -1.5432  -1.5405  -0.6496  -0.6469   0.2366   0.2397
     0.2411   0.2419   1.1178   1.1209   1.1231   1.1246   1.9920   1.9932
     2.8630   2.8641   2.8676   2.8704   3.7077   3.7104   3.7233   3.7256
     3.7281   3.7291   4.5757   4.5768   4.6183   4.6196   5.2915   5.2943
     5.4276   5.4287   5.4521   5.4546   5.4656   5.4668   6.1557   6.1584
     6.2907   6.2934   7.1684   7.1698   7.4144   7.4167   8.0166   8.0179
     8.0797   8.0808   8.4004   8.4030   8.6626   8.6655   9.0012   9.0037
     9.5475   9.5491

          k =-0.5000-0.3000 0.1000 (  7974 PWs)   bands (ev):

    -2.4426  -2.4397  -1.5433  -1.5404  -0.6497  -0.6468   0.2379   0.2389
     0.2408   0.2419   1.1177   1.1207   1.1227   1.1253   1.9919   1.9933
     2.8628   2.8643   2.8675   2.8705   3.7076   3.7105   3.7233   3.7262
     3.7277   3.7290   4.5757   4.5769   4.6183   4.6196   5.2914   5.2944
     5.4275   5.4287   5.4520   5.4549   5.4654   5.4669   6.1556   6.1585
     6.2905   6.2935   7.1684   7.1698   7.4144   7.4168   8.0165   8.0180
     8.0797   8.0809   8.4003   8.4031   8.6625   8.6656   9.0011   9.0038
     9.5475   9.5492

          k = 0.5000-0.3000-0.1000 (  7974 PWs)   bands (ev):

    -2.4426  -2.4397  -1.5433  -1.5404  -0.6497  -0.6468   0.2374   0.2387
     0.2397   0.2436   1.1188   1.1208   1.1220   1.1248   1.9919   1.9933
     2.8631   2.8644   2.8674   2.8702   3.7076   3.7106   3.7232   3.7260
     3.7276   3.7292   4.5757   4.5768   4.6183   4.6197   5.2914   5.2944
     5.4276   5.4288   5.4520   5.4548   5.4654   5.4669   6.1556   6.1585
     6.2905   6.2935   7.1684   7.1698   7.4144   7.4168   8.0165   8.0180
     8.0797   8.0809   8.4003   8.4031   8.6625   8.6656   9.0011   9.0038
     9.5475   9.5492

          k =-0.1000-0.5000 0.3000 (  7974 PWs)   bands (ev):

    -2.4415  -2.4408  -1.5422  -1.5415  -0.6486  -0.6479   0.2375   0.2384
     0.2407   0.2427   1.1200   1.1204   1.1224   1.1236   1.9924   1.9928
     2.8634   2.8638   2.8687   2.8692   3.7087   3.7094   3.7241   3.7250
     3.7281   3.7289   4.5761   4.5764   4.6188   4.6192   5.2925   5.2933
     5.4281   5.4284   5.4530   5.4537   5.4659   5.4664   6.1567   6.1574
     6.2917   6.2924   7.1689   7.1693   7.4153   7.4159   8.0170   8.0174
     8.0801   8.0805   8.4014   8.4020   8.6637   8.6644   9.0022   9.0028
     9.5481   9.5486

          k =-0.1000 0.5000-0.3000 (  7974 PWs)   bands (ev):

    -2.4415  -2.4408  -1.5422  -1.5415  -0.6486  -0.6479   0.2385   0.2393
     0.2404   0.2412   1.1196   1.1207   1.1228   1.1233   1.9924   1.9928
     2.8636   2.8640   2.8684   2.8691   3.7087   3.7094   3.7244   3.7249
     3.7282   3.7285   4.5761   4.5764   4.6188   4.6191   5.2926   5.2933
     5.4280   5.4283   5.4531   5.4537   5.4659   5.4663   6.1567   6.1574
     6.2917   6.2924   7.1689   7.1693   7.4153   7.4159   8.0170   8.0174
     8.0801   8.0805   8.4014   8.4020   8.6637   8.6644   9.0022   9.0028
     9.5481   9.5486

          k = 0.3000-0.5000 0.1000 (  7974 PWs)   bands (ev):

    -2.4415  -2.4408  -1.5422  -1.5415  -0.6486  -0.6479   0.2385   0.2391
     0.2402   0.2416   1.1191   1.1199   1.1228   1.1246   1.9924   1.9928
     2.8634   2.8638   2.8685   2.8693   3.7087   3.7094   3.7240   3.7251
     3.7282   3.7288   4.5761   4.5764   4.6188   4.6191   5.2925   5.2933
     5.4280   5.4283   5.4530   5.4538   5.4660   5.4664   6.1567   6.1574
     6.2917   6.2924   7.1689   7.1693   7.4153   7.4159   8.0170   8.0174
     8.0801   8.0805   8.4014   8.4020   8.6637   8.6644   9.0021   9.0028
     9.5481   9.5486

          k = 0.3000 0.5000-0.1000 (  7974 PWs)   bands (ev):

    -2.4415  -2.4408  -1.5422  -1.5415  -0.6486  -0.6479   0.2381   0.2393
     0.2408   0.2412   1.1199   1.1207   1.1226   1.1233   1.9924   1.9928
     2.8635   2.8639   2.8684   2.8692   3.7087   3.7094   3.7244   3.7251
     3.7281   3.7284   4.5761   4.5764   4.6188   4.6191   5.2926   5.2933
     5.4280   5.4284   5.4531   5.4538   5.4659   5.4663   6.1567   6.1574
     6.2917   6.2924   7.1689   7.1693   7.4153   7.4159   8.0170   8.0174
     8.0801   8.0805   8.4014   8.4020   8.6637   8.6644   9.0021   9.0028
     9.5481   9.5486

          k =-0.5000 0.1000 0.3000 (  7974 PWs)   bands (ev):

    -2.4426  -2.4397  -1.5433  -1.5404  -0.6497  -0.6468   0.2361   0.2390
     0.2408   0.2434   1.1191   1.1211   1.1221   1.1241   1.9919   1.9933
     2.8631   2.8644   2.8674   2.8702   3.7076   3.7106   3.7231   3.7257
     3.7279   3.7293   4.5756   4.5768   4.6183   4.6197   5.2914   5.2944
     5.4276   5.4288   5.4519   5.4547   5.4655   5.4669   6.1556   6.1585
     6.2905   6.2935   7.1684   7.1698   7.4143   7.4168   8.0165   8.0180
     8.0797   8.0809   8.4003   8.4031   8.6625   8.6656   9.0011   9.0038
     9.5475   9.5492

          k = 0.5000-0.1000 0.3000 (  7974 PWs)   bands (ev):

    -2.4426  -2.4397  -1.5433  -1.5404  -0.6497  -0.6468   0.2374   0.2389
     0.2403   0.2428   1.1188   1.1204   1.1216   1.1255   1.9919   1.9933
     2.8631   2.8642   2.8675   2.8703   3.7076   3.7105   3.7232   3.7262
     3.7276   3.7290   4.5757   4.5769   4.6183   4.6197   5.2914   5.2944
     5.4276   5.4287   5.4520   5.4548   5.4654   5.4669   6.1556   6.1585
     6.2905   6.2935   7.1684   7.1698   7.4144   7.4168   8.0165   8.0180
     8.0797   8.0809   8.4003   8.4031   8.6625   8.6656   9.0011   9.0038
     9.5475   9.5492

          k =-0.5000 0.1000 0.5000 (  7944 PWs)   bands (ev):

    -2.0845  -2.0817  -2.0796  -2.0772  -0.2961  -0.2932  -0.2911  -0.2887
     0.5896   0.5925   0.5946   0.5970   2.3374   2.3381   2.3396   2.3419
     2.3428   2.3432   2.3444   2.3465   4.0583   4.0589   4.0606   4.0628
     4.0639   4.0640   4.0653   4.0673   4.9587   4.9596   4.9609   4.9633
     4.9641   4.9648   4.9658   4.9678   5.6204   5.6234   5.6258   5.6283
     6.6141   6.6152   6.6168   6.6178   7.9072   7.9097   7.9111   7.9133
     8.3444   8.3459   8.3469   8.3482   9.1885   9.1900   9.1911   9.1923
     9.8219   9.8257

          k =-0.5000 0.5000 0.1000 (  7944 PWs)   bands (ev):

    -2.0830  -2.0818  -2.0792  -2.0790  -0.2945  -0.2933  -0.2907  -0.2905
     0.5912   0.5924   0.5950   0.5952   2.3379   2.3393   2.3399   2.3413
     2.3420   2.3437   2.3446   2.3452   4.0588   4.0602   4.0607   4.0623
     4.0629   4.0645   4.0656   4.0661   4.9595   4.9606   4.9614   4.9626
     4.9635   4.9651   4.9657   4.9665   5.6221   5.6234   5.6261   5.6263
     6.6149   6.6155   6.6167   6.6168   7.9084   7.9094   7.9116   7.9118
     8.3451   8.3458   8.3471   8.3473   9.1892   9.1899   9.1913   9.1914
     9.8222   9.8254

          k =-0.3000-0.3000 0.3000 (  7997 PWs)   bands (ev):

    -2.6217  -1.7233  -1.7215  -1.7191  -0.8284  -0.8266  -0.8243   0.0629
     0.9426   0.9444   0.9468   1.8190   1.8218   1.8222   1.8234   1.8249
     1.8264   2.6946   2.6950   2.6955   3.5363   3.5367   3.5372   4.3907
     4.3936   4.3941   4.3952   4.3967   4.3983   4.4075   4.4094   4.4118
     5.2806   5.2824   5.2849   5.2994   5.2999   5.3003   6.9594   6.9608
     6.9615   6.9624   6.9632   6.9643   7.8135   7.8147   7.8155   7.8163
     7.8170   7.8182   7.8544   8.8315   8.8322   8.8329   9.5349   9.5352
     9.5355   9.7489

          k =-0.3000 0.3000-0.3000 (  7997 PWs)   bands (ev):

    -2.6217  -1.7237  -1.7213  -1.7188  -0.8289  -0.8265  -0.8240   0.0630
     0.9421   0.9446   0.9471   1.8200   1.8206   1.8218   1.8230   1.8254
     1.8270   2.6942   2.6950   2.6959   3.5359   3.5367   3.5375   4.3918
     4.3923   4.3936   4.3948   4.3973   4.3989   4.4070   4.4095   4.4121
     5.2801   5.2826   5.2852   5.2990   5.2999   5.3007   6.9594   6.9603
     6.9609   6.9629   6.9636   6.9645   7.8134   7.8142   7.8149   7.8169
     7.8175   7.8184   7.8544   8.8310   8.8322   8.8334   9.5346   9.5352
     9.5358   9.7486

          k = 0.3000-0.3000-0.3000 (  7997 PWs)   bands (ev):

    -2.6217  -1.7234  -1.7219  -1.7185  -0.8286  -0.8271  -0.8237   0.0629
     0.9425   0.9440   0.9474   1.8197   1.8207   1.8223   1.8233   1.8247
     1.8270   2.6941   2.6950   2.6959   3.5358   3.5367   3.5376   4.3915
     4.3925   4.3940   4.3952   4.3965   4.3989   4.4074   4.4090   4.4124
     5.2804   5.2820   5.2854   5.2989   5.2999   5.3008   6.9591   6.9604
     6.9610   6.9629   6.9633   6.9648   7.8130   7.8145   7.8150   7.8169
     7.8173   7.8187   7.8544   8.8309   8.8322   8.8336   9.5346   9.5352
     9.5359   9.7478

          k =-0.3000 0.3000 0.5000 (  7950 PWs)   bands (ev):

    -2.2622  -2.2595  -1.3651  -1.3632  -1.3624  -1.3601  -0.4714  -0.4687
     1.2942   1.2961   1.2969   1.2993   2.1661   2.1675   2.1711   2.1722
     2.1736   2.1750   3.0357   3.0369   3.0376   3.0389   3.8787   3.8803
     3.8816   3.8829   3.8907   3.8918   4.7237   4.7256   4.7264   4.7288
     4.7944   4.7970   5.6425   5.6438   5.6446   5.6458   6.4863   6.4875
     6.4881   6.4892   7.3038   7.3048   7.3065   7.3078   8.1132   8.1145
     8.1152   8.1164   8.9855   8.9870   8.9876   8.9891   9.0279   9.0293
     9.2732   9.2748

          k =-0.5000-0.3000 0.3000 (  7950 PWs)   bands (ev):

    -2.2623  -2.2594  -1.3657  -1.3630  -1.3618  -1.3602  -0.4715  -0.4686
     1.2936   1.2963   1.2975   1.2991   2.1663   2.1673   2.1712   2.1718
     2.1738   2.1750   3.0355   3.0368   3.0377   3.0390   3.8792   3.8796
     3.8816   3.8832   3.8905   3.8919   4.7231   4.7258   4.7269   4.7286
     4.7943   4.7971   5.6424   5.6437   5.6447   5.6460   6.4866   6.4873
     6.4876   6.4894   7.3033   7.3049   7.3069   7.3078   8.1140   8.1143
     8.1147   8.1163   8.9853   8.9870   8.9877   8.9893   9.0278   9.0294
     9.2742   9.2758

          k = 0.5000-0.3000-0.3000 (  7950 PWs)   bands (ev):

    -2.2623  -2.2594  -1.3660  -1.3627  -1.3622  -1.3599  -0.4715  -0.4686
     1.2933   1.2966   1.2971   1.2994   2.1665   2.1671   2.1707   2.1722
     2.1741   2.1748   3.0349   3.0364   3.0383   3.0395   3.8788   3.8799
     3.8817   3.8830   3.8905   3.8920   4.7228   4.7261   4.7266   4.7290
     4.7943   4.7971   5.6418   5.6433   5.6453   5.6465   6.4863   6.4875
     6.4881   6.4891   7.3035   7.3047   7.3061   7.3086   8.1133   8.1146
     8.1151   8.1163   8.9847   8.9865   8.9883   8.9897   9.0279   9.0294
     9.2743   9.2757

          k =-0.3000-0.5000 0.3000 (  7950 PWs)   bands (ev):

    -2.2612  -2.2605  -1.3648  -1.3643  -1.3617  -1.3600  -0.4704  -0.4697
     1.2945   1.2950   1.2976   1.2993   2.1665   2.1672   2.1723   2.1725
     2.1732   2.1737   3.0354   3.0356   3.0387   3.0393   3.8806   3.8806
     3.8810   3.8813   3.8911   3.8914   4.7240   4.7245   4.7271   4.7288
     4.7954   4.7960   5.6423   5.6425   5.6458   5.6462   6.4875   6.4875
     6.4879   6.4880   7.3040   7.3054   7.3065   7.3070   8.1146   8.1147
     8.1150   8.1151   8.9854   8.9856   8.9888   8.9895   9.0284   9.0288
     9.2743   9.2750

          k =-0.3000 0.5000-0.3000 (  7950 PWs)   bands (ev):

    -2.2612  -2.2605  -1.3650  -1.3644  -1.3612  -1.3601  -0.4704  -0.4697
     1.2942   1.2948   1.2981   1.2992   2.1664   2.1670   2.1724   2.1728
     2.1731   2.1738   3.0350   3.0354   3.0391   3.0395   3.8803   3.8804
     3.8807   3.8819   3.8912   3.8914   4.7237   4.7243   4.7276   4.7287
     4.7954   4.7960   5.6419   5.6423   5.6462   5.6465   6.4871   6.4875
     6.4876   6.4887   7.3044   7.3050   7.3063   7.3072   8.1143   8.1145
     8.1148   8.1157   8.9850   8.9854   8.9893   8.9897   9.0284   9.0288
     9.2744   9.2748

          k =-0.5000 0.3000 0.5000 (  7960 PWs)   bands (ev):

    -1.9047  -1.9018  -1.8997  -1.8973  -1.0088  -1.0059  -1.0038  -1.0014
     1.6439   1.6468   1.6489   1.6514   2.5116   2.5123   2.5139   2.5162
     2.5171   2.5174   2.5186   2.5207   3.3783   3.3790   3.3806   3.3829
     3.3838   3.3841   3.3854   3.3874   4.2193   4.2223   4.2245   4.2270
     5.9716   5.9724   5.9739   5.9763   5.9772   5.9777   5.9788   5.9810
     6.8101   6.8115   6.8127   6.8138   7.6659   7.6674   7.6685   7.6697
     8.4712   8.4720   8.4736   8.4762   8.4771   8.4776   8.4789   8.4812
     9.5953   9.5993

          k =-0.5000 0.5000 0.3000 (  7960 PWs)   bands (ev):

    -1.9031  -1.9019  -1.8994  -1.8992  -1.0072  -1.0060  -1.0034  -1.0032
     1.6455   1.6467   1.6493   1.6495   2.5122   2.5135   2.5141   2.5156
     2.5163   2.5179   2.5188   2.5194   3.3788   3.3802   3.3808   3.3823
     3.3830   3.3846   3.3856   3.3862   4.2209   4.2222   4.2248   4.2250
     5.9722   5.9735   5.9743   5.9756   5.9765   5.9782   5.9790   5.9797
     6.8109   6.8116   6.8128   6.8129   7.6667   7.6674   7.6687   7.6688
     8.4718   8.4733   8.4739   8.4755   8.4763   8.4783   8.4791   8.4798
     9.5970   9.5990

     the Fermi energy is     7.9414 ev

!    total energy              =   -1264.08612227 Ry
     Harris-Foulkes estimate   =   -1264.08612191 Ry
     estimated scf accuracy    <       0.00000062 Ry

     total all-electron energy =    -15540.655144 Ry

     The total energy is the sum of the following terms:

     one-electron contribution =     101.24180306 Ry
     hartree contribution      =       0.19505511 Ry
     xc contribution           =     -82.91163021 Ry
     ewald contribution        =    -172.93188273 Ry
     one-center paw contrib.   =   -1109.68194408 Ry
     smearing contrib. (-TS)   =       0.00247658 Ry

     convergence has been achieved in   8 iterations

     Forces acting on atoms (cartesian axes, Ry/au):

     atom    1 type  1   force =    -0.00003734   -0.00000640    0.00001258
     atom    2 type  1   force =    -0.00010670    0.00023223    0.00007391
     atom    3 type  1   force =     0.00023679    0.00001010   -0.00052363
     atom    4 type  1   force =     0.00000555   -0.00022270   -0.00035960
     atom    5 type  1   force =    -0.00045615   -0.00035963    0.00033560
     atom    6 type  1   force =    -0.00018970    0.00038795   -0.00004106
     atom    7 type  1   force =    -0.00019349   -0.00053205    0.00034390
     atom    8 type  1   force =    -0.00002291   -0.00006404   -0.00028406
     atom    9 type  1   force =    -0.00002571   -0.00002424    0.00008892
     atom   10 type  1   force =    -0.00020986   -0.00011076   -0.00070392
     atom   11 type  1   force =    -0.00028023   -0.00029270   -0.00038812
     atom   12 type  1   force =    -0.00017531   -0.00000357   -0.00004701
     atom   13 type  1   force =    -0.00016504   -0.00033278   -0.00004723
     atom   14 type  1   force =    -0.00003758    0.00013234    0.00046298
     atom   15 type  1   force =    -0.00053091    0.00038944    0.00054844
     atom   16 type  1   force =     0.00066832    0.00051564    0.00019328
     atom   17 type  1   force =    -0.00038009    0.00008125    0.00005248
     atom   18 type  1   force =     0.00020943   -0.00011683    0.00039343
     atom   19 type  1   force =     0.00058658    0.00022679   -0.00010937
     atom   20 type  1   force =     0.00007655    0.00021796    0.00007001
     atom   21 type  1   force =     0.00018199   -0.00056759    0.00010800
     atom   22 type  1   force =    -0.00008086    0.00061467    0.00020001
     atom   23 type  1   force =     0.00013066   -0.00007104   -0.00014301
     atom   24 type  1   force =     0.00013530    0.00009395   -0.00001275
     atom   25 type  1   force =     0.00008362   -0.00016908    0.00031669
     atom   26 type  1   force =     0.00034233   -0.00024788   -0.00025697
     atom   27 type  1   force =    -0.00016844    0.00010671    0.00010190
     atom   28 type  1   force =    -0.00009368    0.00025049   -0.00010087
     atom   29 type  1   force =     0.00086593   -0.00033622   -0.00010113
     atom   30 type  1   force =    -0.00024514    0.00004141    0.00020077
     atom   31 type  1   force =    -0.00004222   -0.00010006   -0.00035158
     atom   32 type  1   force =    -0.00008169    0.00025667   -0.00003258

     Total force =     0.002811     Total SCF correction =     0.000421
     SCF correction compared to forces is large: reduce conv_thr to get better values


     Computing stress (Cartesian axis) and pressure

          total   stress  (Ry/bohr**3)                   (kbar)     P=   -2.53
  -0.00001723   0.00000000  -0.00000000         -2.53      0.00     -0.00
   0.00000000  -0.00001723  -0.00000000          0.00     -2.53     -0.00
  -0.00000000  -0.00000000  -0.00001723         -0.00     -0.00     -2.53


     Writing output data file fe_scf_fcc_2.save/
 
     init_run     :      5.23s CPU      5.52s WALL (       1 calls)
     electrons    :     74.15s CPU     75.67s WALL (       1 calls)
     forces       :      1.09s CPU      1.13s WALL (       1 calls)
     stress       :      3.53s CPU      3.54s WALL (       1 calls)

     Called by init_run:
     wfcinit      :      4.96s CPU      5.15s WALL (       1 calls)
     potinit      :      0.11s CPU      0.12s WALL (       1 calls)
     hinit0       :      0.13s CPU      0.23s WALL (       1 calls)

     Called by electrons:
     c_bands      :     64.68s CPU     65.93s WALL (       9 calls)
     sum_band     :      8.51s CPU      8.72s WALL (       9 calls)
     v_of_rho     :      0.06s CPU      0.07s WALL (       9 calls)
     newd         :      0.05s CPU      0.06s WALL (       9 calls)
     PAW_pot      :      0.87s CPU      0.88s WALL (       9 calls)
     mix_rho      :      0.02s CPU      0.02s WALL (       9 calls)

     Called by c_bands:
     init_us_2    :      0.81s CPU      0.83s WALL (    1323 calls)
     cegterg      :     62.02s CPU     63.22s WALL (     567 calls)

     Called by sum_band:
     sum_band:bec :      0.06s CPU      0.06s WALL (     567 calls)
     addusdens    :      0.02s CPU      0.03s WALL (       9 calls)

     Called by *egterg:
     h_psi        :     42.73s CPU     43.84s WALL (    2106 calls)
     s_psi        :      2.03s CPU      2.05s WALL (    2106 calls)
     g_psi        :      0.09s CPU      0.09s WALL (    1476 calls)
     cdiaghg      :     10.85s CPU     10.90s WALL (    1980 calls)

     Called by h_psi:
     h_psi:pot    :     42.57s CPU     43.69s WALL (    2106 calls)
     h_psi:calbec :      4.05s CPU      4.22s WALL (    2106 calls)
     vloc_psi     :     36.28s CPU     37.20s WALL (    2106 calls)
     add_vuspsi   :      2.23s CPU      2.25s WALL (    2106 calls)

     General routines
     calbec       :      7.70s CPU      7.98s WALL (    2988 calls)
     fft          :      0.21s CPU      0.32s WALL (     142 calls)
     ffts         :      0.01s CPU      0.01s WALL (      18 calls)
     fftw         :     41.04s CPU     42.05s WALL (  222708 calls)
     interpolate  :      0.01s CPU      0.01s WALL (       9 calls)
 
     Parallel routines
     fft_scatt_xy :      2.46s CPU      2.52s WALL (  222868 calls)
     fft_scatt_yz :     28.94s CPU     29.72s WALL (  222868 calls)
 
     PWSCF        :  1m25.42s CPU     1m30.43s WALL

 
   This run was terminated on:   1:20:52  12Mar2020            

=------------------------------------------------------------------------------=
   JOB DONE.
=------------------------------------------------------------------------------=
