
     Program PWSCF v.6.3 starts on 12Mar2020 at  1:20:53 

     This program is part of the open-source Quantum ESPRESSO suite
     for quantum simulation of materials; please cite
         "P. Giannozzi et al., J. Phys.:Condens. Matter 21 395502 (2009);
         "P. Giannozzi et al., J. Phys.:Condens. Matter 29 465901 (2017);
          URL http://www.quantum-espresso.org", 
     in publications or presentations arising from this work. More details at
     http://www.quantum-espresso.org/quote

     Parallel version (MPI & OpenMP), running on      20 processor cores
     Number of MPI processes:                20
     Threads/MPI process:                     1

     MPI processes distributed on     1 nodes
     R & G space division:  proc/nbgrp/npool/nimage =      20
     Reading input from wd/kpoints/file_000150.in
Warning: card &IONS ignored
Warning: card ION_DYNAMICS = 'BFGS', ignored
Warning: card / ignored
Warning: card &CELL ignored
Warning: card CELL_DYNAMICS = 'BFGS', ignored
Warning: card CELL_FACTOR = 2.0, ignored
Warning: card PRESS = 0.0, ignored
Warning: card / ignored

     Current dimensions of program PWSCF are:
     Max number of different atomic species (ntypx) = 10
     Max number of k-points (npk) =  40000
     Max angular momentum in pseudopotentials (lmaxx) =  3
     Message from routine read_upf::
     Pseudo file /rds/homes/b/bxp912/pp/Al.pbe-nl-kjpaw_psl.1.0.0.UPF has been successfully fixed on the fly.
To avoid this message in the future you can permanently fix 
 your pseudo files following instructions given in: 
https://gitlab.com/QEF/q-e/blob/master/upftools/how_to_fix_upf.md
               file Al.pbe-nl-kjpaw_psl.1.0.0.UPF: wavefunction(s)  3S 3P renormalized

     Subspace diagonalization in iterative solution of the eigenvalue problem:
     a serial algorithm will be used

 
     Parallelization info
     --------------------
     sticks:   dense  smooth     PW     G-vecs:    dense   smooth      PW
     Min          96      96     27                 3225     3198     487
     Max          98      97     28                 3241     3201     490
     Sum        1941    1933    553                64589    63989    9771
 


     bravais-lattice index     =            0
     lattice parameter (alat)  =      15.2712  a.u.
     unit-cell volume          =    3561.3897 (a.u.)^3
     number of atoms/cell      =           32
     number of atomic types    =            1
     number of electrons       =        96.00
     number of Kohn-Sham states=           58
     kinetic-energy cutoff     =      26.0000  Ry
     charge density cutoff     =     105.0000  Ry
     convergence threshold     =      1.0E-06
     mixing beta               =       0.1000
     number of iterations used =           10  TF        mixing
     Exchange-correlation      = SLA PW PBX PBC ( 1  4  3  4 0 0)

     celldm(1)=  15.271200  celldm(2)=   0.000000  celldm(3)=   0.000000
     celldm(4)=   0.000000  celldm(5)=   0.000000  celldm(6)=   0.000000

     crystal axes: (cart. coord. in units of alat)
               a(1) = (   1.000000   0.000000   0.000000 )  
               a(2) = (   0.000000   1.000000   0.000000 )  
               a(3) = (   0.000000   0.000000   1.000000 )  

     reciprocal axes: (cart. coord. in units 2 pi/alat)
               b(1) = (  1.000000  0.000000  0.000000 )  
               b(2) = (  0.000000  1.000000  0.000000 )  
               b(3) = (  0.000000  0.000000  1.000000 )  


     PseudoPot. # 1 for Al read from file:
     /rds/homes/b/bxp912/pp/Al.pbe-nl-kjpaw_psl.1.0.0.UPF
     MD5 check sum: 339dbea23cf3ab9a065ad45c0f9085d7
     Pseudo is Projector augmented-wave + core cor, Zval =  3.0
     Generated using "atomic" code by A. Dal Corso v.5.1
     Shape of augmentation charge: PSQ
     Using radial grid of 1135 points,  4 beta functions with: 
                l(1) =   0
                l(2) =   0
                l(3) =   1
                l(4) =   1
     Q(r) pseudized with 0 coefficients 


     atomic species   valence    mass     pseudopotential
        Al             3.00    26.98200     Al( 1.00)

     No symmetry found



   Cartesian axes

     site n.     atom                  positions (alat units)
         1           Al  tau(   1) = (  -0.0000327   0.0000095   0.0000680  )
         2           Al  tau(   2) = (   0.2500796   0.2498100   0.0000703  )
         3           Al  tau(   3) = (   0.2499071   0.0000305   0.2502955  )
         4           Al  tau(   4) = (  -0.0000200   0.2502187   0.2501837  )
         5           Al  tau(   5) = (   0.0002558   0.0002521   0.4998810  )
         6           Al  tau(   6) = (   0.2501194   0.2498326   0.5000036  )
         7           Al  tau(   7) = (   0.2500278   0.0001539   0.7498880  )
         8           Al  tau(   8) = (   0.0000549   0.2501136   0.7502101  )
         9           Al  tau(   9) = (   0.0002375   0.5001078  -0.0000154  )
        10           Al  tau(  10) = (   0.2501396   0.7501762   0.0004054  )
        11           Al  tau(  11) = (   0.2501891   0.5001088   0.2502510  )
        12           Al  tau(  12) = (   0.0000383   0.7500455   0.2500253  )
        13           Al  tau(  13) = (   0.0001102   0.5001562   0.5000990  )
        14           Al  tau(  14) = (   0.2499640   0.7500632   0.4998706  )
        15           Al  tau(  15) = (   0.2503366   0.4997894   0.7496960  )
        16           Al  tau(  16) = (  -0.0003280   0.7497055   0.7499931  )
        17           Al  tau(  17) = (   0.5002037  -0.0001004  -0.0000387  )
        18           Al  tau(  18) = (   0.7499123   0.2500941  -0.0002332  )
        19           Al  tau(  19) = (   0.7496354  -0.0000959   0.2500771  )
        20           Al  tau(  20) = (   0.4999751   0.2499614   0.2498317  )
        21           Al  tau(  21) = (   0.4999211   0.0002929   0.4999726  )
        22           Al  tau(  22) = (   0.7500684   0.2496958   0.4999523  )
        23           Al  tau(  23) = (   0.7500357  -0.0000687   0.7500257  )
        24           Al  tau(  24) = (   0.5000114   0.2498864   0.7499948  )
        25           Al  tau(  25) = (   0.4998526   0.5001156  -0.0002192  )
        26           Al  tau(  26) = (   0.7497723   0.7500978   0.0002736  )
        27           Al  tau(  27) = (   0.7501007   0.4998018   0.2499462  )
        28           Al  tau(  28) = (   0.5000878   0.7497908   0.2502093  )
        29           Al  tau(  29) = (   0.4996761   0.5001027   0.5000404  )
        30           Al  tau(  30) = (   0.7501658   0.7499872   0.4998547  )
        31           Al  tau(  31) = (   0.7499472   0.5000095   0.7501393  )
        32           Al  tau(  32) = (   0.5000142   0.7499486   0.7499177  )

     number of k points=    63  Marzari-Vanderbilt smearing, width (Ry)=  0.0400
                       cart. coord. in units 2pi/alat
        k(    1) = (   0.1000000   0.1000000   0.1000000), wk =   0.0320000
        k(    2) = (   0.1000000   0.1000000   0.3000000), wk =   0.0320000
        k(    3) = (   0.1000000   0.1000000  -0.5000000), wk =   0.0320000
        k(    4) = (   0.1000000   0.3000000   0.3000000), wk =   0.0320000
        k(    5) = (   0.1000000   0.3000000  -0.5000000), wk =   0.0320000
        k(    6) = (   0.1000000  -0.5000000  -0.5000000), wk =   0.0320000
        k(    7) = (   0.3000000   0.3000000   0.3000000), wk =   0.0320000
        k(    8) = (   0.3000000   0.3000000  -0.5000000), wk =   0.0320000
        k(    9) = (   0.3000000  -0.5000000  -0.5000000), wk =   0.0320000
        k(   10) = (  -0.5000000  -0.5000000  -0.5000000), wk =   0.0160000
        k(   11) = (  -0.1000000  -0.1000000   0.1000000), wk =   0.0320000
        k(   12) = (  -0.1000000   0.1000000  -0.1000000), wk =   0.0320000
        k(   13) = (   0.1000000  -0.1000000  -0.1000000), wk =   0.0320000
        k(   14) = (  -0.1000000  -0.1000000   0.3000000), wk =   0.0320000
        k(   15) = (  -0.1000000   0.1000000  -0.3000000), wk =   0.0320000
        k(   16) = (   0.1000000  -0.1000000  -0.3000000), wk =   0.0320000
        k(   17) = (   0.3000000  -0.1000000   0.1000000), wk =   0.0320000
        k(   18) = (  -0.3000000  -0.1000000  -0.1000000), wk =   0.0320000
        k(   19) = (   0.3000000   0.1000000  -0.1000000), wk =   0.0320000
        k(   20) = (  -0.3000000   0.1000000   0.1000000), wk =   0.0320000
        k(   21) = (  -0.1000000   0.3000000   0.1000000), wk =   0.0320000
        k(   22) = (  -0.1000000  -0.3000000  -0.1000000), wk =   0.0320000
        k(   23) = (   0.1000000   0.3000000  -0.1000000), wk =   0.0320000
        k(   24) = (   0.1000000  -0.3000000   0.1000000), wk =   0.0320000
        k(   25) = (  -0.1000000   0.1000000   0.5000000), wk =   0.0320000
        k(   26) = (  -0.5000000  -0.1000000   0.1000000), wk =   0.0320000
        k(   27) = (   0.5000000  -0.1000000  -0.1000000), wk =   0.0320000
        k(   28) = (  -0.1000000  -0.5000000   0.1000000), wk =   0.0320000
        k(   29) = (  -0.1000000   0.5000000  -0.1000000), wk =   0.0320000
        k(   30) = (  -0.1000000  -0.3000000   0.3000000), wk =   0.0320000
        k(   31) = (  -0.1000000   0.3000000  -0.3000000), wk =   0.0320000
        k(   32) = (   0.1000000  -0.3000000  -0.3000000), wk =   0.0320000
        k(   33) = (   0.3000000   0.1000000  -0.3000000), wk =   0.0320000
        k(   34) = (  -0.3000000  -0.1000000  -0.3000000), wk =   0.0320000
        k(   35) = (   0.3000000  -0.1000000   0.3000000), wk =   0.0320000
        k(   36) = (  -0.3000000   0.1000000   0.3000000), wk =   0.0320000
        k(   37) = (   0.3000000  -0.3000000   0.1000000), wk =   0.0320000
        k(   38) = (  -0.3000000  -0.3000000  -0.1000000), wk =   0.0320000
        k(   39) = (   0.3000000   0.3000000  -0.1000000), wk =   0.0320000
        k(   40) = (  -0.3000000   0.3000000   0.1000000), wk =   0.0320000
        k(   41) = (  -0.1000000   0.3000000   0.5000000), wk =   0.0320000
        k(   42) = (   0.3000000   0.1000000   0.5000000), wk =   0.0320000
        k(   43) = (   0.3000000  -0.1000000  -0.5000000), wk =   0.0320000
        k(   44) = (  -0.5000000  -0.3000000   0.1000000), wk =   0.0320000
        k(   45) = (   0.5000000  -0.3000000  -0.1000000), wk =   0.0320000
        k(   46) = (  -0.1000000  -0.5000000   0.3000000), wk =   0.0320000
        k(   47) = (  -0.1000000   0.5000000  -0.3000000), wk =   0.0320000
        k(   48) = (   0.3000000  -0.5000000   0.1000000), wk =   0.0320000
        k(   49) = (   0.3000000   0.5000000  -0.1000000), wk =   0.0320000
        k(   50) = (  -0.5000000   0.1000000   0.3000000), wk =   0.0320000
        k(   51) = (   0.5000000  -0.1000000   0.3000000), wk =   0.0320000
        k(   52) = (  -0.5000000   0.1000000   0.5000000), wk =   0.0320000
        k(   53) = (  -0.5000000   0.5000000   0.1000000), wk =   0.0320000
        k(   54) = (  -0.3000000  -0.3000000   0.3000000), wk =   0.0320000
        k(   55) = (  -0.3000000   0.3000000  -0.3000000), wk =   0.0320000
        k(   56) = (   0.3000000  -0.3000000  -0.3000000), wk =   0.0320000
        k(   57) = (  -0.3000000   0.3000000   0.5000000), wk =   0.0320000
        k(   58) = (  -0.5000000  -0.3000000   0.3000000), wk =   0.0320000
        k(   59) = (   0.5000000  -0.3000000  -0.3000000), wk =   0.0320000
        k(   60) = (  -0.3000000  -0.5000000   0.3000000), wk =   0.0320000
        k(   61) = (  -0.3000000   0.5000000  -0.3000000), wk =   0.0320000
        k(   62) = (  -0.5000000   0.3000000   0.5000000), wk =   0.0320000
        k(   63) = (  -0.5000000   0.5000000   0.3000000), wk =   0.0320000

     Dense  grid:    64589 G-vectors     FFT dimensions: (  50,  50,  50)

     Smooth grid:    63989 G-vectors     FFT dimensions: (  50,  50,  50)

     Estimated max dynamical RAM per process >      33.64 MB

     Estimated total dynamical RAM >     672.79 MB

     Initial potential from superposition of free atoms

     starting charge   95.92671, renormalised to   96.00000
     Starting wfcs are  128 randomized atomic wfcs
     Checking if some PAW data can be deallocated... 

     total cpu time spent up to now is        6.2 secs

     Self-consistent Calculation

     iteration #  1     ecut=    26.00 Ry     beta= 0.10
     Davidson diagonalization with overlap
     ethr =  1.00E-02,  avg # of iterations =  3.0

     Threshold (ethr) on eigenvalues was too large:
     Diagonalizing with lowered threshold

     Davidson diagonalization with overlap
     ethr =  1.91E-04,  avg # of iterations =  3.8

     total cpu time spent up to now is       26.1 secs

     total energy              =   -1264.12871965 Ry
     Harris-Foulkes estimate   =   -1264.13500425 Ry
     estimated scf accuracy    <       0.17969549 Ry

     iteration #  2     ecut=    26.00 Ry     beta= 0.10
     Davidson diagonalization with overlap
     ethr =  1.87E-04,  avg # of iterations =  1.0

     total cpu time spent up to now is       32.2 secs

     total energy              =   -1264.08112588 Ry
     Harris-Foulkes estimate   =   -1264.12951200 Ry
     estimated scf accuracy    <       0.15592833 Ry

     iteration #  3     ecut=    26.00 Ry     beta= 0.10
     Davidson diagonalization with overlap
     ethr =  1.62E-04,  avg # of iterations =  1.0

     total cpu time spent up to now is       38.3 secs

     total energy              =   -1264.08397746 Ry
     Harris-Foulkes estimate   =   -1264.08413080 Ry
     estimated scf accuracy    <       0.00060260 Ry

     iteration #  4     ecut=    26.00 Ry     beta= 0.10
     Davidson diagonalization with overlap
     ethr =  6.28E-07,  avg # of iterations =  5.2

     total cpu time spent up to now is       59.8 secs

     total energy              =   -1264.08459258 Ry
     Harris-Foulkes estimate   =   -1264.08474679 Ry
     estimated scf accuracy    <       0.00037409 Ry

     iteration #  5     ecut=    26.00 Ry     beta= 0.10
     Davidson diagonalization with overlap
     ethr =  3.90E-07,  avg # of iterations =  1.3

     total cpu time spent up to now is       66.1 secs

     total energy              =   -1264.08439231 Ry
     Harris-Foulkes estimate   =   -1264.08460422 Ry
     estimated scf accuracy    <       0.00023832 Ry

     iteration #  6     ecut=    26.00 Ry     beta= 0.10
     Davidson diagonalization with overlap
     ethr =  2.48E-07,  avg # of iterations =  2.5

     total cpu time spent up to now is       75.3 secs

     total energy              =   -1264.08445560 Ry
     Harris-Foulkes estimate   =   -1264.08445389 Ry
     estimated scf accuracy    <       0.00001049 Ry

     iteration #  7     ecut=    26.00 Ry     beta= 0.10
     Davidson diagonalization with overlap
     ethr =  1.09E-08,  avg # of iterations =  4.0

     total cpu time spent up to now is       84.1 secs

     total energy              =   -1264.08444964 Ry
     Harris-Foulkes estimate   =   -1264.08445651 Ry
     estimated scf accuracy    <       0.00000553 Ry

     iteration #  8     ecut=    26.00 Ry     beta= 0.10
     Davidson diagonalization with overlap
     ethr =  5.76E-09,  avg # of iterations =  2.3

     total cpu time spent up to now is       92.0 secs

     End of self-consistent calculation

          k = 0.1000 0.1000 0.1000 (  7986 PWs)   bands (ev):

    -3.1646  -1.3652  -1.3628  -1.3599  -0.4730  -0.4706  -0.4678   0.4145
     0.4168   0.4197   1.2953   1.2956   1.2983   1.2989   1.3002   1.3015
     2.1714   2.1737   2.1749   2.1769   3.0371   3.0378   3.0386   3.9329
     3.9336   3.9344   4.6181   4.6187   4.6193   4.7879   6.2951   6.2954
     6.2984   6.2991   6.3003   6.3015   6.8022   6.8028   6.8035   7.1401
     7.1406   7.1426   7.1439   7.1451   7.1456   7.9951   7.9975   8.0004
     8.4428   8.4434   8.4451   8.4461   8.4479   8.4494   8.8355   8.8361
     8.8373   8.8386

          k = 0.1000 0.1000 0.3000 (  7974 PWs)   bands (ev):

    -2.9834  -2.0807  -1.1842  -1.1831  -0.2944  -0.2935  -0.2920  -0.2897
     0.5912   0.5922   0.5933   0.5960   1.4723   1.4742   1.4763   2.3458
     2.3468   2.3477   2.3490   2.3514   3.1916   3.2099   3.2158   3.2169
     4.1060   4.7874   4.7879   4.9076   4.9087   4.9581   4.9588   5.6299
     5.6304   5.7472   5.7484   5.8153   6.4910   6.4921   6.6331   6.9736
     6.9741   7.3205   7.3216   7.3250   7.3263   7.4807   7.4816   7.7588
     7.7598   8.1646   8.1653   8.2336   8.2337   8.3269   8.5434   8.7164
     8.7171   9.4680

          k = 0.1000 0.1000-0.5000 (  7978 PWs)   bands (ev):

    -2.6229  -2.6203  -0.8283  -0.8276  -0.8258  -0.8242   0.0606   0.0614
     0.0631   0.0647   0.9455   0.9482   1.8170   1.8183   1.8232   1.8239
     1.8259   1.8266   2.6951   2.6978   3.5555   3.5567   3.5568   3.5579
     4.4150   4.4162   4.4163   4.4174   5.1236   5.1240   5.1262   5.1269
     5.2946   5.2959   6.1485   6.1491   6.1498   6.1508   6.8189   6.8194
     6.8214   6.8231   7.0007   7.0021   7.3087   7.3092   7.3113   7.3121
     7.6581   7.6585   7.6605   7.6622   9.0738   9.0745   9.0761   9.0778
     9.3503   9.3517

          k = 0.1000 0.3000 0.3000 (  7962 PWs)   bands (ev):

    -2.8024  -1.9024  -1.8992  -1.0056  -1.0042  -0.1168  -0.1151  -0.1122
     0.7664   0.7680   0.7686   0.7709   0.7736   1.6468   1.6478   1.6506
     2.5200   2.5232   3.3637   3.3649   3.3803   3.3815   3.3872   3.3902
     4.2231   4.2263   4.2489   4.2786   4.2798   4.9564   5.0668   5.0680
     5.7914   5.7949   5.9512   5.9544   5.9612   5.9624   5.9845   6.6529
     6.7672   6.7693   6.8005   6.8038   6.8375   7.1395   8.0694   8.0717
     8.3161   8.3197   8.4924   8.4941   8.7062   8.7076   8.9134   9.1693
     9.1712   9.3277

          k = 0.1000 0.3000-0.5000 (  7974 PWs)   bands (ev):

    -2.4424  -2.4398  -1.5431  -1.5405  -0.6495  -0.6468   0.2363   0.2394
     0.2413   0.2427   1.1183   1.1214   1.1228   1.1242   1.9921   1.9933
     2.8631   2.8643   2.8677   2.8703   3.7078   3.7105   3.7234   3.7257
     3.7280   3.7294   4.5758   4.5769   4.6185   4.6197   5.2916   5.2944
     5.4277   5.4288   5.4522   5.4547   5.4656   5.4670   6.1558   6.1585
     6.2908   6.2935   7.1686   7.1699   7.4145   7.4168   8.0167   8.0180
     8.0799   8.0810   8.4005   8.4031   8.6627   8.6656   9.0013   9.0038
     9.5477   9.5493

          k = 0.1000-0.5000-0.5000 (  7944 PWs)   bands (ev):

    -2.0830  -2.0819  -2.0796  -2.0781  -0.2945  -0.2935  -0.2911  -0.2896
     0.5912   0.5922   0.5946   0.5961   2.3379   2.3394   2.3400   2.3410
     2.3418   2.3440   2.3450   2.3456   4.0587   4.0603   4.0609   4.0620
     4.0626   4.0649   4.0659   4.0666   4.9594   4.9607   4.9613   4.9623
     4.9634   4.9653   4.9664   4.9670   5.6220   5.6232   5.6258   5.6273
     6.6148   6.6153   6.6167   6.6174   7.9086   7.9094   7.9113   7.9125
     8.3452   8.3458   8.3470   8.3478   9.1893   9.1899   9.1911   9.1920
     9.8224   9.8253

          k = 0.3000 0.3000 0.3000 (  7997 PWs)   bands (ev):

    -2.6216  -1.7237  -1.7214  -1.7185  -0.8289  -0.8265  -0.8237   0.0630
     0.9422   0.9445   0.9475   1.8200   1.8204   1.8230   1.8237   1.8249
     1.8263   2.6944   2.6951   2.6959   3.5361   3.5368   3.5376   4.3918
     4.3921   4.3949   4.3955   4.3968   4.3981   4.4071   4.4095   4.4124
     5.2801   5.2826   5.2855   5.2992   5.3000   5.3008   6.9594   6.9599
     6.9614   6.9629   6.9640   6.9646   7.8134   7.8139   7.8154   7.8168
     7.8180   7.8185   7.8545   8.8312   8.8323   8.8334   9.5348   9.5353
     9.5359   9.7492

          k = 0.3000 0.3000-0.5000 (  7950 PWs)   bands (ev):

    -2.2621  -2.2595  -1.3644  -1.3637  -1.3619  -1.3603  -0.4713  -0.4686
     1.2949   1.2956   1.2974   1.2990   2.1665   2.1678   2.1712   2.1719
     2.1739   2.1747   3.0361   3.0373   3.0374   3.0385   3.8794   3.8799
     3.8819   3.8828   3.8907   3.8918   4.7244   4.7251   4.7269   4.7285
     4.7945   4.7971   5.6430   5.6443   5.6444   5.6455   6.4868   6.4874
     6.4881   6.4891   7.3040   7.3047   7.3065   7.3081   8.1139   8.1146
     8.1151   8.1161   8.9861   8.9873   8.9876   8.9887   9.0280   9.0294
     9.2737   9.2744

          k = 0.3000-0.5000-0.5000 (  7960 PWs)   bands (ev):

    -1.9031  -1.9021  -1.8997  -1.8983  -1.0072  -1.0061  -1.0038  -1.0023
     1.6455   1.6466   1.6490   1.6504   2.5121   2.5136   2.5142   2.5152
     2.5161   2.5182   2.5192   2.5199   3.3788   3.3803   3.3810   3.3820
     3.3827   3.3850   3.3860   3.3866   4.2209   4.2220   4.2245   4.2260
     5.9722   5.9737   5.9743   5.9753   5.9763   5.9784   5.9795   5.9801
     6.8109   6.8115   6.8127   6.8135   7.6668   7.6673   7.6685   7.6693
     8.4716   8.4734   8.4741   8.4752   8.4762   8.4784   8.4795   8.4804
     9.5963   9.5988

          k =-0.5000-0.5000-0.5000 (  8024 PWs)   bands (ev):

    -1.5465  -1.5458  -1.5429  -1.5424  -1.5414  -1.5394  -1.5391  -1.5364
     2.8560   2.8563   2.8577   2.8583   2.8595   2.8605   2.8607   2.8617
     2.8620   2.8626   2.8629   2.8634   2.8639   2.8643   2.8648   2.8649
     2.8658   2.8668   2.8672   2.8676   2.8685   2.8699   2.8714   2.8735
     7.1494   7.1504   7.1511   7.1517   7.1529   7.1534   7.1539   7.1542
     7.1543   7.1550   7.1561   7.1567   7.1574   7.1576   7.1578   7.1586
     7.1590   7.1597   7.1600   7.1603   7.1612   7.1619   7.1637   7.1638
    11.3554  11.3574

          k =-0.1000-0.1000 0.1000 (  7986 PWs)   bands (ev):

    -3.1646  -1.3646  -1.3628  -1.3605  -0.4725  -0.4707  -0.4683   0.4150
     0.4168   0.4192   1.2943   1.2972   1.2975   1.2988   1.3002   1.3017
     2.1720   2.1738   2.1748   2.1763   3.0374   3.0378   3.0383   3.9332
     3.9336   3.9341   4.6183   4.6187   4.6191   4.7880   6.2940   6.2972
     6.2979   6.2986   6.3004   6.3018   6.8025   6.8028   6.8032   7.1401
     7.1419   7.1427   7.1434   7.1444   7.1456   7.9956   7.9975   7.9999
     8.4425   8.4438   8.4452   8.4465   8.4475   8.4491   8.8360   8.8362
     8.8378   8.8383

          k =-0.1000 0.1000-0.1000 (  7986 PWs)   bands (ev):

    -3.1646  -1.3651  -1.3627  -1.3601  -0.4730  -0.4705  -0.4680   0.4145
     0.4170   0.4195   1.2953   1.2959   1.2971   1.2983   1.3007   1.3024
     2.1715   2.1740   2.1748   2.1766   3.0370   3.0378   3.0386   3.9328
     3.9336   3.9345   4.6180   4.6187   4.6194   4.7879   6.2953   6.2959
     6.2970   6.2983   6.3009   6.3024   6.8021   6.8028   6.8035   7.1403
     7.1412   7.1419   7.1438   7.1450   7.1458   7.9951   7.9976   8.0002
     8.4426   8.4436   8.4449   8.4464   8.4479   8.4494   8.8350   8.8357
     8.8372   8.8387

          k = 0.1000-0.1000-0.1000 (  7986 PWs)   bands (ev):

    -3.1646  -1.3648  -1.3633  -1.3599  -0.4726  -0.4711  -0.4677   0.4149
     0.4164   0.4198   1.2951   1.2961   1.2976   1.2987   1.3000   1.3023
     2.1718   2.1733   2.1748   2.1769   3.0369   3.0378   3.0387   3.9327
     3.9336   3.9345   4.6180   4.6187   4.6194   4.7879   6.2949   6.2962
     6.2975   6.2987   6.2999   6.3026   6.8021   6.8028   6.8036   7.1399
     7.1415   7.1420   7.1440   7.1444   7.1462   7.9955   7.9970   8.0004
     8.4431   8.4433   8.4447   8.4463   8.4476   8.4498   8.8342   8.8364
     8.8374   8.8388

          k =-0.1000-0.1000 0.3000 (  7974 PWs)   bands (ev):

    -2.9834  -2.0807  -1.1842  -1.1831  -0.2943  -0.2935  -0.2915  -0.2903
     0.5908   0.5926   0.5938   0.5955   1.4723   1.4740   1.4765   2.3458
     2.3463   2.3480   2.3492   2.3514   3.1916   3.2096   3.2157   3.2171
     4.1060   4.7874   4.7879   4.9076   4.9088   4.9581   4.9588   5.6299
     5.6305   5.7472   5.7484   5.8153   6.4910   6.4921   6.6331   6.9736
     6.9741   7.3205   7.3213   7.3251   7.3265   7.4807   7.4816   7.7588
     7.7598   8.1646   8.1652   8.2337   8.2338   8.3269   8.5434   8.7164
     8.7171   9.4677

          k =-0.1000 0.1000-0.3000 (  7974 PWs)   bands (ev):

    -2.9834  -2.0807  -1.1847  -1.1827  -0.2948  -0.2923  -0.2920  -0.2906
     0.5904   0.5922   0.5943   0.5957   1.4727   1.4743   1.4757   2.3456
     2.3465   2.3479   2.3498   2.3510   3.1916   3.2095   3.2152   3.2177
     4.1060   4.7871   4.7882   4.9071   4.9092   4.9577   4.9592   5.6296
     5.6307   5.7467   5.7488   5.8153   6.4906   6.4926   6.6331   6.9733
     6.9744   7.3208   7.3218   7.3244   7.3264   7.4803   7.4820   7.7583
     7.7603   8.1643   8.1655   8.2336   8.2338   8.3269   8.5434   8.7162
     8.7174   9.4670

          k = 0.1000-0.1000-0.3000 (  7974 PWs)   bands (ev):

    -2.9834  -2.0807  -1.1847  -1.1827  -0.2945  -0.2942  -0.2917  -0.2892
     0.5913   0.5927   0.5937   0.5948   1.4720   1.4736   1.4772   2.3461
     2.3463   2.3479   2.3489   2.3515   3.1916   3.2100   3.2152   3.2173
     4.1060   4.7871   4.7882   4.9071   4.9092   4.9578   4.9592   5.6296
     5.6307   5.7467   5.7488   5.8153   6.4906   6.4926   6.6331   6.9733
     6.9744   7.3195   7.3217   7.3256   7.3266   7.4803   7.4820   7.7583
     7.7603   8.1643   8.1655   8.2336   8.2338   8.3269   8.5434   8.7162
     8.7174   9.4672

          k = 0.3000-0.1000 0.1000 (  7974 PWs)   bands (ev):

    -2.9834  -2.0807  -1.1848  -1.1826  -0.2938  -0.2933  -0.2927  -0.2898
     0.5896   0.5935   0.5943   0.5952   1.4730   1.4743   1.4755   2.3454
     2.3466   2.3477   2.3501   2.3509   3.1916   3.2092   3.2157   3.2175
     4.1060   4.7874   4.7879   4.9070   4.9093   4.9582   4.9588   5.6299
     5.6304   5.7466   5.7489   5.8153   6.4904   6.4927   6.6331   6.9736
     6.9741   7.3207   7.3220   7.3244   7.3263   7.4808   7.4815   7.7589
     7.7598   8.1642   8.1655   8.2337   8.2338   8.3269   8.5434   8.7161
     8.7175   9.4681

          k =-0.3000-0.1000-0.1000 (  7974 PWs)   bands (ev):

    -2.9834  -2.0807  -1.1853  -1.1821  -0.2949  -0.2931  -0.2923  -0.2893
     0.5896   0.5921   0.5946   0.5963   1.4730   1.4744   1.4753   2.3446
     2.3464   2.3488   2.3498   2.3510   3.1916   3.2091   3.2151   3.2183
     4.1060   4.7872   4.7881   4.9065   4.9099   4.9579   4.9591   5.6297
     5.6307   5.7461   5.7494   5.8153   6.4900   6.4932   6.6332   6.9733
     6.9744   7.3204   7.3224   7.3239   7.3267   7.4805   7.4819   7.7585
     7.7602   8.1639   8.1659   8.2337   8.2338   8.3269   8.5434   8.7158
     8.7178   9.4663

          k = 0.3000 0.1000-0.1000 (  7974 PWs)   bands (ev):

    -2.9834  -2.0807  -1.1848  -1.1826  -0.2942  -0.2931  -0.2920  -0.2903
     0.5903   0.5932   0.5939   0.5952   1.4729   1.4743   1.4756   2.3455
     2.3470   2.3481   2.3493   2.3508   3.1916   3.2095   3.2156   3.2175
     4.1059   4.7874   4.7879   4.9070   4.9093   4.9582   4.9588   5.6299
     5.6304   5.7466   5.7489   5.8153   6.4905   6.4927   6.6331   6.9736
     6.9741   7.3207   7.3218   7.3245   7.3264   7.4808   7.4815   7.7589
     7.7598   8.1642   8.1656   8.2337   8.2338   8.3269   8.5434   8.7161
     8.7175   9.4684

          k =-0.3000 0.1000 0.1000 (  7974 PWs)   bands (ev):

    -2.9834  -2.0807  -1.1853  -1.1821  -0.2946  -0.2937  -0.2921  -0.2892
     0.5905   0.5920   0.5938   0.5963   1.4728   1.4739   1.4761   2.3449
     2.3470   2.3484   2.3489   2.3514   3.1916   3.2096   3.2148   3.2181
     4.1060   4.7872   4.7881   4.9065   4.9098   4.9579   4.9591   5.6297
     5.6306   5.7461   5.7494   5.8153   6.4900   6.4932   6.6331   6.9733
     6.9744   7.3197   7.3225   7.3244   7.3268   7.4804   7.4819   7.7585
     7.7602   8.1639   8.1659   8.2336   8.2338   8.3269   8.5434   8.7158
     8.7178   9.4667

          k =-0.1000 0.3000 0.1000 (  7974 PWs)   bands (ev):

    -2.9834  -2.0807  -1.1854  -1.1820  -0.2952  -0.2930  -0.2930  -0.2884
     0.5905   0.5919   0.5945   0.5957   1.4720   1.4740   1.4768   2.3443
     2.3470   2.3486   2.3496   2.3512   3.1916   3.2098   3.2147   3.2180
     4.1060   4.7876   4.7877   4.9063   4.9100   4.9584   4.9585   5.6301
     5.6302   5.7460   5.7496   5.8153   6.4898   6.4933   6.6331   6.9738
     6.9739   7.3200   7.3210   7.3250   7.3274   7.4811   7.4812   7.7593
     7.7594   8.1639   8.1659   8.2337   8.2337   8.3269   8.5434   8.7157
     8.7178   9.4661

          k =-0.1000-0.3000-0.1000 (  7974 PWs)   bands (ev):

    -2.9834  -2.0807  -1.1857  -1.1817  -0.2954  -0.2938  -0.2924  -0.2880
     0.5900   0.5926   0.5942   0.5958   1.4720   1.4742   1.4765   2.3448
     2.3463   2.3485   2.3499   2.3511   3.1916   3.2096   3.2146   3.2183
     4.1060   4.7874   4.7879   4.9060   4.9103   4.9581   4.9588   5.6299
     5.6304   5.7456   5.7499   5.8153   6.4895   6.4936   6.6331   6.9736
     6.9741   7.3198   7.3218   7.3239   7.3279   7.4808   7.4815   7.7589
     7.7598   8.1637   8.1661   8.2337   8.2337   8.3269   8.5434   8.7156
     8.7180   9.4658

          k = 0.1000 0.3000-0.1000 (  7974 PWs)   bands (ev):

    -2.9834  -2.0807  -1.1854  -1.1820  -0.2952  -0.2933  -0.2913  -0.2898
     0.5903   0.5924   0.5939   0.5960   1.4728   1.4740   1.4760   2.3448
     2.3470   2.3484   2.3493   2.3512   3.1916   3.2094   3.2147   3.2184
     4.1060   4.7876   4.7877   4.9063   4.9100   4.9584   4.9585   5.6301
     5.6302   5.7460   5.7496   5.8153   6.4899   6.4933   6.6331   6.9738
     6.9739   7.3202   7.3220   7.3240   7.3272   7.4811   7.4812   7.7592
     7.7594   8.1639   8.1659   8.2337   8.2337   8.3269   8.5434   8.7157
     8.7178   9.4669

          k = 0.1000-0.3000 0.1000 (  7974 PWs)   bands (ev):

    -2.9834  -2.0807  -1.1857  -1.1817  -0.2959  -0.2932  -0.2912  -0.2892
     0.5897   0.5925   0.5939   0.5964   1.4725   1.4740   1.4762   2.3447
     2.3463   2.3483   2.3497   2.3516   3.1916   3.2094   3.2147   3.2184
     4.1060   4.7874   4.7879   4.9060   4.9103   4.9581   4.9588   5.6299
     5.6304   5.7456   5.7499   5.8153   6.4895   6.4936   6.6331   6.9736
     6.9741   7.3198   7.3222   7.3239   7.3275   7.4808   7.4816   7.7589
     7.7598   8.1637   8.1661   8.2337   8.2338   8.3269   8.5434   8.7156
     8.7180   9.4658

          k =-0.1000 0.1000 0.5000 (  7978 PWs)   bands (ev):

    -2.6229  -2.6203  -0.8289  -0.8269  -0.8262  -0.8238   0.0601   0.0620
     0.0627   0.0651   0.9455   0.9482   1.8167   1.8181   1.8231   1.8243
     1.8256   1.8270   2.6951   2.6978   3.5551   3.5563   3.5571   3.5584
     4.4146   4.4158   4.4167   4.4179   5.1232   5.1244   5.1260   5.1271
     5.2946   5.2959   6.1481   6.1493   6.1499   6.1510   6.8182   6.8202
     6.8210   6.8234   7.0007   7.0021   7.3083   7.3096   7.3111   7.3123
     7.6578   7.6589   7.6605   7.6620   9.0736   9.0747   9.0761   9.0777
     9.3499   9.3511

          k =-0.5000-0.1000 0.1000 (  7978 PWs)   bands (ev):

    -2.6230  -2.6202  -0.8295  -0.8267  -0.8256  -0.8240   0.0594   0.0622
     0.0633   0.0650   0.9454   0.9483   1.8169   1.8180   1.8233   1.8238
     1.8258   1.8271   2.6950   2.6979   3.5549   3.5563   3.5572   3.5585
     4.4144   4.4158   4.4167   4.4180   5.1235   5.1238   5.1261   5.1273
     5.2945   5.2960   6.1484   6.1491   6.1494   6.1512   6.8176   6.8203
     6.8216   6.8233   7.0007   7.0021   7.3086   7.3091   7.3111   7.3125
     7.6573   7.6591   7.6609   7.6620   9.0731   9.0748   9.0765   9.0777
     9.3502   9.3517

          k = 0.5000-0.1000-0.1000 (  7978 PWs)   bands (ev):

    -2.6230  -2.6202  -0.8298  -0.8265  -0.8259  -0.8237   0.0592   0.0625
     0.0630   0.0653   0.9454   0.9483   1.8170   1.8178   1.8228   1.8243
     1.8260   1.8269   2.6950   2.6979   3.5544   3.5559   3.5578   3.5589
     4.4139   4.4153   4.4173   4.4185   5.1232   5.1242   5.1262   5.1271
     5.2946   5.2960   6.1481   6.1493   6.1499   6.1509   6.8174   6.8207
     6.8211   6.8236   7.0007   7.0021   7.3082   7.3095   7.3112   7.3123
     7.6575   7.6589   7.6601   7.6627   9.0733   9.0747   9.0758   9.0784
     9.3502   9.3509

          k =-0.1000-0.5000 0.1000 (  7978 PWs)   bands (ev):

    -2.6220  -2.6213  -0.8286  -0.8280  -0.8255  -0.8237   0.0604   0.0609
     0.0634   0.0652   0.9465   0.9472   1.8171   1.8178   1.8244   1.8246
     1.8252   1.8257   2.6961   2.6968   3.5549   3.5550   3.5582   3.5588
     4.4144   4.4145   4.4178   4.4183   5.1248   5.1248   5.1255   5.1256
     5.2951   5.2954   6.1493   6.1494   6.1497   6.1498   6.8186   6.8191
     6.8216   6.8234   7.0012   7.0016   7.3099   7.3100   7.3106   7.3107
     7.6581   7.6594   7.6606   7.6612   9.0739   9.0751   9.0763   9.0769
     9.3510   9.3514

          k =-0.1000 0.5000-0.1000 (  7978 PWs)   bands (ev):

    -2.6220  -2.6213  -0.8288  -0.8282  -0.8249  -0.8239   0.0601   0.0607
     0.0640   0.0651   0.9465   0.9472   1.8171   1.8176   1.8245   1.8248
     1.8250   1.8259   2.6961   2.6968   3.5545   3.5548   3.5586   3.5590
     4.4140   4.4143   4.4182   4.4185   5.1248   5.1248   5.1250   5.1260
     5.2951   5.2954   6.1489   6.1493   6.1494   6.1505   6.8183   6.8190
     6.8222   6.8233   7.0012   7.0016   7.3099   7.3100   7.3101   7.3112
     7.6583   7.6589   7.6605   7.6615   9.0742   9.0747   9.0761   9.0771
     9.3509   9.3515

          k =-0.1000-0.3000 0.3000 (  7962 PWs)   bands (ev):

    -2.8024  -1.9019  -1.8997  -1.0056  -1.0043  -0.1175  -0.1140  -0.1125
     0.7668   0.7678   0.7686   0.7715   0.7729   1.6470   1.6480   1.6502
     2.5205   2.5227   3.3640   3.3646   3.3805   3.3809   3.3876   3.3900
     4.2236   4.2259   4.2489   4.2789   4.2794   4.9564   5.0671   5.0677
     5.7919   5.7943   5.9516   5.9537   5.9616   5.9623   5.9845   6.6529
     6.7676   6.7690   6.8010   6.8033   6.8375   7.1395   8.0698   8.0714
     8.3166   8.3191   8.4927   8.4939   8.7065   8.7072   8.9134   9.1698
     9.1708   9.3277

          k =-0.1000 0.3000-0.3000 (  7962 PWs)   bands (ev):

    -2.8024  -1.9019  -1.8997  -1.0051  -1.0048  -0.1171  -0.1141  -0.1128
     0.7670   0.7678   0.7693   0.7707   0.7726   1.6469   1.6480   1.6503
     2.5205   2.5227   3.3641   3.3646   3.3804   3.3812   3.3876   3.3898
     4.2236   4.2259   4.2489   4.2789   4.2794   4.9564   5.0671   5.0677
     5.7919   5.7943   5.9516   5.9539   5.9615   5.9622   5.9844   6.6529
     6.7676   6.7690   6.8010   6.8033   6.8375   7.1395   8.0698   8.0714
     8.3166   8.3191   8.4927   8.4939   8.7065   8.7072   8.9134   9.1698
     9.1707   9.3277

          k = 0.1000-0.3000-0.3000 (  7962 PWs)   bands (ev):

    -2.8024  -1.9024  -1.8992  -1.0060  -1.0039  -0.1176  -0.1147  -0.1117
     0.7664   0.7669   0.7690   0.7718   0.7734   1.6470   1.6483   1.6500
     2.5200   2.5232   3.3637   3.3649   3.3801   3.3813   3.3873   3.3905
     4.2231   4.2263   4.2490   4.2786   4.2797   4.9564   5.0668   5.0680
     5.7914   5.7949   5.9510   5.9542   5.9613   5.9627   5.9845   6.6529
     6.7672   6.7693   6.8005   6.8038   6.8375   7.1395   8.0694   8.0717
     8.3161   8.3197   8.4924   8.4941   8.7062   8.7076   8.9134   9.1693
     9.1712   9.3277

          k = 0.3000 0.1000-0.3000 (  7962 PWs)   bands (ev):

    -2.8024  -1.9025  -1.8991  -1.0056  -1.0042  -0.1169  -0.1146  -0.1126
     0.7656   0.7681   0.7688   0.7715   0.7734   1.6462   1.6477   1.6513
     2.5198   2.5233   3.3643   3.3643   3.3808   3.3810   3.3870   3.3902
     4.2230   4.2265   4.2488   4.2791   4.2794   4.9563   5.0674   5.0675
     5.7912   5.7950   5.9511   5.9546   5.9617   5.9618   5.9844   6.6529
     6.7671   6.7693   6.8004   6.8040   6.8375   7.1395   8.0693   8.0718
     8.3159   8.3198   8.4924   8.4942   8.7068   8.7069   8.9134   9.1702
     9.1704   9.3277

          k =-0.3000-0.1000-0.3000 (  7962 PWs)   bands (ev):

    -2.8024  -1.9028  -1.8988  -1.0056  -1.0043  -0.1177  -0.1142  -0.1121
     0.7654   0.7673   0.7700   0.7713   0.7735   1.6466   1.6479   1.6508
     2.5195   2.5236   3.3640   3.3646   3.3803   3.3812   3.3868   3.3908
     4.2227   4.2268   4.2489   4.2789   4.2795   4.9564   5.0671   5.0677
     5.7909   5.7954   5.9508   5.9547   5.9615   5.9622   5.9845   6.6529
     6.7670   6.7695   6.8001   6.8043   6.8375   7.1395   8.0691   8.0721
     8.3155   8.3202   8.4922   8.4943   8.7065   8.7073   8.9134   9.1698
     9.1708   9.3277

          k = 0.3000-0.1000 0.3000 (  7962 PWs)   bands (ev):

    -2.8024  -1.9028  -1.8988  -1.0060  -1.0039  -0.1174  -0.1142  -0.1124
     0.7658   0.7675   0.7690   0.7714   0.7738   1.6462   1.6480   1.6511
     2.5195   2.5236   3.3640   3.3646   3.3806   3.3813   3.3867   3.3906
     4.2227   4.2268   4.2488   4.2790   4.2795   4.9563   5.0671   5.0677
     5.7909   5.7953   5.9508   5.9549   5.9615   5.9621   5.9844   6.6529
     6.7669   6.7695   6.8001   6.8043   6.8375   7.1394   8.0691   8.0721
     8.3155   8.3202   8.4922   8.4943   8.7065   8.7073   8.9134   9.1698
     9.1708   9.3276

          k =-0.3000 0.1000 0.3000 (  7962 PWs)   bands (ev):

    -2.8024  -1.9025  -1.8991  -1.0051  -1.0048  -0.1171  -0.1151  -0.1117
     0.7660   0.7681   0.7697   0.7704   0.7733   1.6469   1.6478   1.6506
     2.5198   2.5233   3.3643   3.3644   3.3805   3.3809   3.3870   3.3905
     4.2230   4.2265   4.2489   4.2791   4.2792   4.9564   5.0674   5.0675
     5.7912   5.7950   5.9509   5.9544   5.9617   5.9621   5.9844   6.6529
     6.7671   6.7694   6.8004   6.8040   6.8375   7.1395   8.0693   8.0718
     8.3159   8.3198   8.4924   8.4942   8.7068   8.7069   8.9134   9.1702
     9.1704   9.3277

          k = 0.3000-0.3000 0.1000 (  7962 PWs)   bands (ev):

    -2.8024  -1.9018  -1.8998  -1.0056  -1.0042  -0.1158  -0.1147  -0.1135
     0.7668   0.7673   0.7699   0.7708   0.7727   1.6462   1.6475   1.6516
     2.5206   2.5226   3.3637   3.3650   3.3804   3.3817   3.3874   3.3895
     4.2238   4.2257   4.2488   4.2785   4.2800   4.9563   5.0668   5.0681
     5.7920   5.7942   5.9519   5.9540   5.9610   5.9623   5.9845   6.6529
     6.7676   6.7689   6.8012   6.8032   6.8375   7.1395   8.0699   8.0713
     8.3167   8.3190   8.4928   8.4938   8.7061   8.7076   8.9134   9.1692
     9.1714   9.3277

          k =-0.3000-0.3000-0.1000 (  7962 PWs)   bands (ev):

    -2.8024  -1.9014  -1.9003  -1.0051  -1.0048  -0.1163  -0.1149  -0.1128
     0.7671   0.7674   0.7694   0.7708   0.7728   1.6464   1.6478   1.6510
     2.5210   2.5221   3.3640   3.3647   3.3805   3.3812   3.3881   3.3892
     4.2242   4.2253   4.2488   4.2789   4.2796   4.9564   5.0671   5.0678
     5.7925   5.7937   5.9523   5.9534   5.9614   5.9621   5.9844   6.6529
     6.7679   6.7686   6.8016   6.8028   6.8375   7.1395   8.0702   8.0710
     8.3172   8.3185   8.4930   8.4936   8.7065   8.7072   8.9134   9.1697
     9.1708   9.3277

          k = 0.3000 0.3000-0.1000 (  7962 PWs)   bands (ev):

    -2.8024  -1.9014  -1.9003  -1.0060  -1.0039  -0.1160  -0.1145  -0.1135
     0.7669   0.7675   0.7694   0.7707   0.7731   1.6464   1.6480   1.6508
     2.5210   2.5221   3.3639   3.3646   3.3807   3.3813   3.3880   3.3892
     4.2241   4.2253   4.2489   4.2789   4.2795   4.9564   5.0671   5.0677
     5.7925   5.7937   5.9523   5.9535   5.9614   5.9620   5.9845   6.6529
     6.7679   6.7686   6.8016   6.8028   6.8375   7.1395   8.0702   8.0710
     8.3172   8.3185   8.4930   8.4936   8.7065   8.7073   8.9134   9.1697
     9.1708   9.3277

          k =-0.3000 0.3000 0.1000 (  7962 PWs)   bands (ev):

    -2.8024  -1.9018  -1.8998  -1.0056  -1.0043  -0.1163  -0.1154  -0.1123
     0.7663   0.7684   0.7696   0.7702   0.7730   1.6467   1.6483   1.6503
     2.5206   2.5226   3.3636   3.3650   3.3801   3.3815   3.3877   3.3898
     4.2237   4.2257   4.2489   4.2785   4.2799   4.9564   5.0668   5.0681
     5.7920   5.7942   5.9518   5.9537   5.9612   5.9625   5.9845   6.6529
     6.7676   6.7689   6.8011   6.8032   6.8375   7.1395   8.0699   8.0713
     8.3167   8.3190   8.4927   8.4938   8.7060   8.7077   8.9134   9.1692
     9.1714   9.3277

          k =-0.1000 0.3000 0.5000 (  7974 PWs)   bands (ev):

    -2.4424  -2.4398  -1.5431  -1.5405  -0.6495  -0.6468   0.2366   0.2396
     0.2407   0.2429   1.1190   1.1208   1.1226   1.1243   1.9921   1.9933
     2.8632   2.8641   2.8679   2.8702   3.7078   3.7105   3.7235   3.7261
     3.7278   3.7289   4.5758   4.5769   4.6185   4.6197   5.2917   5.2944
     5.4277   5.4288   5.4523   5.4548   5.4655   5.4668   6.1558   6.1585
     6.2908   6.2935   7.1686   7.1699   7.4145   7.4168   8.0167   8.0180
     8.0799   8.0810   8.4005   8.4031   8.6627   8.6656   9.0013   9.0038
     9.5477   9.5493

          k = 0.3000 0.1000 0.5000 (  7974 PWs)   bands (ev):

    -2.4424  -2.4398  -1.5431  -1.5405  -0.6495  -0.6468   0.2377   0.2389
     0.2411   0.2421   1.1182   1.1211   1.1226   1.1249   1.9921   1.9933
     2.8633   2.8645   2.8675   2.8702   3.7079   3.7105   3.7233   3.7260
     3.7278   3.7292   4.5758   4.5769   4.6184   4.6197   5.2916   5.2944
     5.4277   5.4288   5.4522   5.4548   5.4657   5.4670   6.1558   6.1585
     6.2908   6.2935   7.1686   7.1699   7.4145   7.4168   8.0167   8.0180
     8.0799   8.0810   8.4005   8.4031   8.6627   8.6656   9.0013   9.0038
     9.5477   9.5493

          k = 0.3000-0.1000-0.5000 (  7974 PWs)   bands (ev):

    -2.4424  -2.4398  -1.5431  -1.5405  -0.6495  -0.6468   0.2368   0.2398
     0.2412   0.2420   1.1179   1.1210   1.1232   1.1247   1.9921   1.9933
     2.8631   2.8642   2.8677   2.8704   3.7078   3.7105   3.7234   3.7257
     3.7282   3.7292   4.5758   4.5769   4.6185   4.6197   5.2916   5.2944
     5.4277   5.4288   5.4522   5.4547   5.4657   5.4669   6.1558   6.1585
     6.2908   6.2935   7.1686   7.1699   7.4145   7.4168   8.0167   8.0180
     8.0799   8.0810   8.4005   8.4031   8.6627   8.6656   9.0013   9.0038
     9.5477   9.5493

          k =-0.5000-0.3000 0.1000 (  7974 PWs)   bands (ev):

    -2.4425  -2.4397  -1.5432  -1.5404  -0.6496  -0.6467   0.2380   0.2390
     0.2408   0.2419   1.1179   1.1207   1.1228   1.1254   1.9920   1.9934
     2.8629   2.8644   2.8677   2.8705   3.7077   3.7106   3.7234   3.7262
     3.7278   3.7291   4.5758   4.5770   4.6184   4.6197   5.2915   5.2945
     5.4276   5.4288   5.4522   5.4550   5.4656   5.4670   6.1557   6.1586
     6.2907   6.2936   7.1685   7.1699   7.4144   7.4169   8.0166   8.0181
     8.0798   8.0810   8.4004   8.4032   8.6626   8.6657   9.0012   9.0039
     9.5476   9.5494

          k = 0.5000-0.3000-0.1000 (  7974 PWs)   bands (ev):

    -2.4425  -2.4397  -1.5432  -1.5404  -0.6496  -0.6467   0.2375   0.2388
     0.2398   0.2437   1.1190   1.1209   1.1221   1.1248   1.9920   1.9934
     2.8632   2.8645   2.8675   2.8703   3.7077   3.7106   3.7233   3.7261
     3.7277   3.7293   4.5758   4.5769   4.6184   4.6198   5.2915   5.2945
     5.4277   5.4289   5.4521   5.4549   5.4655   5.4670   6.1557   6.1586
     6.2907   6.2936   7.1685   7.1699   7.4144   7.4169   8.0166   8.0181
     8.0798   8.0810   8.4004   8.4032   8.6626   8.6657   9.0012   9.0039
     9.5476   9.5493

          k =-0.1000-0.5000 0.3000 (  7974 PWs)   bands (ev):

    -2.4414  -2.4408  -1.5421  -1.5414  -0.6485  -0.6478   0.2376   0.2386
     0.2408   0.2428   1.1201   1.1205   1.1225   1.1237   1.9925   1.9929
     2.8635   2.8639   2.8688   2.8693   3.7088   3.7095   3.7242   3.7251
     3.7282   3.7290   4.5762   4.5765   4.6189   4.6193   5.2927   5.2934
     5.4281   5.4284   5.4532   5.4538   5.4660   5.4665   6.1568   6.1575
     6.2918   6.2925   7.1690   7.1694   7.4153   7.4159   8.0171   8.0175
     8.0803   8.0806   8.4015   8.4021   8.6638   8.6645   9.0022   9.0029
     9.5482   9.5487

          k =-0.1000 0.5000-0.3000 (  7974 PWs)   bands (ev):

    -2.4414  -2.4408  -1.5421  -1.5414  -0.6485  -0.6478   0.2386   0.2394
     0.2405   0.2413   1.1197   1.1208   1.1229   1.1233   1.9925   1.9929
     2.8637   2.8640   2.8685   2.8692   3.7088   3.7095   3.7245   3.7250
     3.7283   3.7286   4.5762   4.5765   4.6189   4.6192   5.2927   5.2934
     5.4281   5.4284   5.4532   5.4539   5.4660   5.4664   6.1568   6.1575
     6.2918   6.2925   7.1690   7.1694   7.4153   7.4159   8.0171   8.0175
     8.0803   8.0806   8.4015   8.4021   8.6638   8.6645   9.0022   9.0029
     9.5482   9.5487

          k = 0.3000-0.5000 0.1000 (  7974 PWs)   bands (ev):

    -2.4414  -2.4407  -1.5421  -1.5414  -0.6485  -0.6478   0.2386   0.2391
     0.2403   0.2417   1.1192   1.1200   1.1229   1.1247   1.9925   1.9929
     2.8635   2.8639   2.8686   2.8694   3.7088   3.7095   3.7241   3.7251
     3.7283   3.7289   4.5762   4.5765   4.6189   4.6192   5.2927   5.2934
     5.4281   5.4284   5.4531   5.4539   5.4661   5.4665   6.1568   6.1575
     6.2918   6.2925   7.1690   7.1694   7.4153   7.4159   8.0171   8.0175
     8.0803   8.0806   8.4015   8.4021   8.6638   8.6645   9.0022   9.0029
     9.5482   9.5487

          k = 0.3000 0.5000-0.1000 (  7974 PWs)   bands (ev):

    -2.4414  -2.4407  -1.5421  -1.5414  -0.6485  -0.6478   0.2382   0.2394
     0.2408   0.2413   1.1200   1.1208   1.1226   1.1233   1.9925   1.9929
     2.8636   2.8640   2.8685   2.8693   3.7088   3.7095   3.7245   3.7252
     3.7282   3.7285   4.5762   4.5765   4.6189   4.6193   5.2927   5.2934
     5.4281   5.4284   5.4532   5.4539   5.4660   5.4664   6.1568   6.1575
     6.2918   6.2925   7.1690   7.1694   7.4153   7.4159   8.0171   8.0175
     8.0803   8.0806   8.4015   8.4021   8.6638   8.6645   9.0022   9.0029
     9.5482   9.5487

          k =-0.5000 0.1000 0.3000 (  7974 PWs)   bands (ev):

    -2.4425  -2.4397  -1.5432  -1.5403  -0.6496  -0.6467   0.2363   0.2391
     0.2409   0.2435   1.1192   1.1212   1.1221   1.1242   1.9920   1.9934
     2.8632   2.8645   2.8675   2.8703   3.7077   3.7107   3.7232   3.7258
     3.7280   3.7294   4.5757   4.5769   4.6184   4.6198   5.2915   5.2945
     5.4277   5.4289   5.4520   5.4548   5.4656   5.4670   6.1557   6.1586
     6.2907   6.2936   7.1685   7.1699   7.4144   7.4168   8.0166   8.0181
     8.0798   8.0810   8.4004   8.4032   8.6626   8.6657   9.0012   9.0039
     9.5476   9.5494

          k = 0.5000-0.1000 0.3000 (  7974 PWs)   bands (ev):

    -2.4425  -2.4397  -1.5432  -1.5403  -0.6496  -0.6467   0.2375   0.2390
     0.2404   0.2428   1.1190   1.1205   1.1217   1.1256   1.9920   1.9934
     2.8632   2.8643   2.8676   2.8704   3.7077   3.7106   3.7233   3.7263
     3.7277   3.7291   4.5758   4.5769   4.6184   4.6198   5.2915   5.2945
     5.4276   5.4288   5.4521   5.4549   5.4656   5.4670   6.1557   6.1586
     6.2907   6.2936   7.1685   7.1699   7.4144   7.4168   8.0166   8.0181
     8.0798   8.0810   8.4004   8.4032   8.6626   8.6657   9.0012   9.0039
     9.5476   9.5493

          k =-0.5000 0.1000 0.5000 (  7944 PWs)   bands (ev):

    -2.0844  -2.0816  -2.0795  -2.0771  -0.2960  -0.2931  -0.2910  -0.2886
     0.5897   0.5926   0.5947   0.5971   2.3375   2.3382   2.3397   2.3420
     2.3429   2.3433   2.3445   2.3465   4.0584   4.0590   4.0606   4.0629
     4.0640   4.0641   4.0654   4.0674   4.9588   4.9597   4.9610   4.9634
     4.9642   4.9649   4.9659   4.9679   5.6205   5.6235   5.6259   5.6284
     6.6141   6.6153   6.6169   6.6179   7.9073   7.9098   7.9112   7.9134
     8.3445   8.3460   8.3470   8.3483   9.1886   9.1901   9.1912   9.1924
     9.8220   9.8258

          k =-0.5000 0.5000 0.1000 (  7944 PWs)   bands (ev):

    -2.0829  -2.0817  -2.0792  -2.0789  -0.2944  -0.2932  -0.2907  -0.2905
     0.5913   0.5925   0.5950   0.5953   2.3380   2.3394   2.3400   2.3414
     2.3421   2.3438   2.3447   2.3453   4.0589   4.0603   4.0607   4.0624
     4.0630   4.0645   4.0657   4.0662   4.9596   4.9607   4.9615   4.9627
     4.9636   4.9652   4.9658   4.9666   5.6222   5.6235   5.6262   5.6264
     6.6150   6.6156   6.6168   6.6169   7.9086   7.9095   7.9117   7.9119
     8.3453   8.3459   8.3472   8.3474   9.1894   9.1900   9.1914   9.1915
     9.8223   9.8256

          k =-0.3000-0.3000 0.3000 (  7997 PWs)   bands (ev):

    -2.6216  -1.7232  -1.7214  -1.7190  -0.8284  -0.8266  -0.8242   0.0630
     0.9427   0.9445   0.9469   1.8191   1.8219   1.8223   1.8235   1.8250
     1.8265   2.6947   2.6951   2.6956   3.5364   3.5368   3.5373   4.3908
     4.3937   4.3942   4.3953   4.3968   4.3984   4.4076   4.4095   4.4119
     5.2807   5.2825   5.2850   5.2995   5.3000   5.3005   6.9595   6.9609
     6.9616   6.9625   6.9633   6.9644   7.8136   7.8148   7.8157   7.8165
     7.8172   7.8184   7.8545   8.8316   8.8323   8.8330   9.5350   9.5354
     9.5357   9.7490

          k =-0.3000 0.3000-0.3000 (  7997 PWs)   bands (ev):

    -2.6216  -1.7237  -1.7212  -1.7187  -0.8288  -0.8264  -0.8239   0.0630
     0.9422   0.9447   0.9472   1.8201   1.8207   1.8219   1.8230   1.8255
     1.8271   2.6943   2.6951   2.6960   3.5360   3.5368   3.5376   4.3918
     4.3924   4.3937   4.3949   4.3974   4.3990   4.4071   4.4096   4.4122
     5.2802   5.2827   5.2853   5.2991   5.3000   5.3008   6.9595   6.9604
     6.9610   6.9630   6.9638   6.9646   7.8135   7.8143   7.8150   7.8170
     7.8176   7.8185   7.8545   8.8311   8.8323   8.8335   9.5348   9.5353
     9.5359   9.7487

          k = 0.3000-0.3000-0.3000 (  7997 PWs)   bands (ev):

    -2.6216  -1.7233  -1.7218  -1.7184  -0.8285  -0.8270  -0.8236   0.0630
     0.9426   0.9441   0.9475   1.8198   1.8208   1.8224   1.8234   1.8248
     1.8271   2.6942   2.6951   2.6960   3.5359   3.5368   3.5377   4.3916
     4.3926   4.3941   4.3953   4.3966   4.3990   4.4074   4.4090   4.4125
     5.2805   5.2821   5.2856   5.2990   5.3000   5.3009   6.9592   6.9605
     6.9611   6.9630   6.9634   6.9649   7.8131   7.8146   7.8152   7.8170
     7.8174   7.8188   7.8545   8.8309   8.8323   8.8336   9.5347   9.5354
     9.5360   9.7479

          k =-0.3000 0.3000 0.5000 (  7950 PWs)   bands (ev):

    -2.2621  -2.2595  -1.3650  -1.3630  -1.3623  -1.3600  -0.4713  -0.4686
     1.2943   1.2962   1.2970   1.2993   2.1662   2.1676   2.1712   2.1723
     2.1737   2.1751   3.0357   3.0369   3.0377   3.0390   3.8788   3.8804
     3.8817   3.8829   3.8908   3.8919   4.7238   4.7257   4.7264   4.7288
     4.7945   4.7971   5.6427   5.6439   5.6447   5.6460   6.4864   6.4876
     6.4882   6.4893   7.3039   7.3049   7.3066   7.3079   8.1133   8.1145
     8.1153   8.1165   8.9856   8.9871   8.9878   8.9892   9.0280   9.0294
     9.2733   9.2749

          k =-0.5000-0.3000 0.3000 (  7950 PWs)   bands (ev):

    -2.2622  -2.2593  -1.3656  -1.3629  -1.3618  -1.3601  -0.4714  -0.4685
     1.2937   1.2964   1.2975   1.2992   2.1664   2.1674   2.1713   2.1719
     2.1739   2.1751   3.0356   3.0369   3.0378   3.0391   3.8793   3.8797
     3.8816   3.8832   3.8906   3.8920   4.7232   4.7259   4.7270   4.7287
     4.7944   4.7972   5.6425   5.6438   5.6448   5.6462   6.4867   6.4874
     6.4877   6.4895   7.3034   7.3050   7.3070   7.3079   8.1140   8.1143
     8.1148   8.1164   8.9854   8.9871   8.9878   8.9894   9.0280   9.0295
     9.2743   9.2759

          k = 0.5000-0.3000-0.3000 (  7950 PWs)   bands (ev):

    -2.2622  -2.2593  -1.3659  -1.3626  -1.3621  -1.3598  -0.4714  -0.4685
     1.2934   1.2967   1.2972   1.2995   2.1666   2.1672   2.1708   2.1723
     2.1742   2.1749   3.0350   3.0365   3.0384   3.0396   3.8789   3.8801
     3.8817   3.8831   3.8906   3.8921   4.7229   4.7262   4.7267   4.7290
     4.7944   4.7972   5.6419   5.6434   5.6454   5.6466   6.4864   6.4876
     6.4882   6.4892   7.3036   7.3049   7.3062   7.3087   8.1134   8.1147
     8.1152   8.1164   8.9848   8.9866   8.9884   8.9898   9.0280   9.0295
     9.2744   9.2758

          k =-0.3000-0.5000 0.3000 (  7950 PWs)   bands (ev):

    -2.2611  -2.2604  -1.3647  -1.3642  -1.3616  -1.3599  -0.4703  -0.4696
     1.2946   1.2951   1.2977   1.2994   2.1666   2.1673   2.1724   2.1726
     2.1733   2.1738   3.0355   3.0356   3.0388   3.0394   3.8807   3.8807
     3.8811   3.8814   3.8912   3.8915   4.7241   4.7246   4.7272   4.7289
     4.7955   4.7961   5.6424   5.6426   5.6459   5.6464   6.4876   6.4877
     6.4880   6.4881   7.3041   7.3055   7.3066   7.3071   8.1146   8.1148
     8.1151   8.1152   8.9855   8.9857   8.9889   8.9897   9.0285   9.0289
     9.2744   9.2751

          k =-0.3000 0.5000-0.3000 (  7950 PWs)   bands (ev):

    -2.2611  -2.2604  -1.3650  -1.3643  -1.3611  -1.3600  -0.4703  -0.4696
     1.2943   1.2949   1.2982   1.2993   2.1665   2.1671   2.1725   2.1729
     2.1731   2.1739   3.0351   3.0354   3.0393   3.0396   3.8804   3.8805
     3.8808   3.8820   3.8913   3.8915   4.7238   4.7244   4.7277   4.7288
     4.7955   4.7961   5.6420   5.6424   5.6463   5.6466   6.4872   6.4876
     6.4877   6.4888   7.3045   7.3051   7.3064   7.3073   8.1144   8.1146
     8.1149   8.1158   8.9851   8.9855   8.9894   8.9898   9.0285   9.0289
     9.2745   9.2749

          k =-0.5000 0.3000 0.5000 (  7960 PWs)   bands (ev):

    -1.9046  -1.9017  -1.8996  -1.8973  -1.0086  -1.0058  -1.0037  -1.0013
     1.6440   1.6469   1.6490   1.6514   2.5118   2.5124   2.5140   2.5163
     2.5172   2.5175   2.5187   2.5208   3.3785   3.3791   3.3807   3.3830
     3.3839   3.3842   3.3855   3.3875   4.2194   4.2223   4.2246   4.2270
     5.9718   5.9726   5.9740   5.9764   5.9773   5.9778   5.9789   5.9811
     6.8103   6.8116   6.8128   6.8139   7.6661   7.6675   7.6686   7.6698
     8.4714   8.4722   8.4737   8.4763   8.4772   8.4777   8.4790   8.4813
     9.5955   9.5994

          k =-0.5000 0.5000 0.3000 (  7960 PWs)   bands (ev):

    -1.9030  -1.9018  -1.8993  -1.8991  -1.0071  -1.0059  -1.0034  -1.0031
     1.6456   1.6468   1.6494   1.6496   2.5123   2.5136   2.5142   2.5157
     2.5164   2.5180   2.5189   2.5195   3.3790   3.3803   3.3809   3.3824
     3.3831   3.3847   3.3857   3.3862   4.2211   4.2223   4.2249   4.2251
     5.9724   5.9737   5.9744   5.9758   5.9766   5.9783   5.9790   5.9797
     6.8110   6.8117   6.8129   6.8130   7.6668   7.6675   7.6688   7.6689
     8.4719   8.4734   8.4740   8.4756   8.4764   8.4784   8.4792   8.4799
     9.5971   9.5991

     the Fermi energy is     7.9192 ev

!    total energy              =   -1264.08445067 Ry
     Harris-Foulkes estimate   =   -1264.08445031 Ry
     estimated scf accuracy    <       0.00000065 Ry

     total all-electron energy =    -15540.653473 Ry

     The total energy is the sum of the following terms:

     one-electron contribution =     101.24002162 Ry
     hartree contribution      =       0.19553423 Ry
     xc contribution           =     -82.91286394 Ry
     ewald contribution        =    -172.93188273 Ry
     one-center paw contrib.   =   -1109.68359927 Ry
     smearing contrib. (-TS)   =       0.00833941 Ry

     convergence has been achieved in   8 iterations

     Forces acting on atoms (cartesian axes, Ry/au):

     atom    1 type  1   force =    -0.00002776   -0.00001173    0.00001113
     atom    2 type  1   force =    -0.00010675    0.00023220    0.00007723
     atom    3 type  1   force =     0.00023165    0.00001332   -0.00052154
     atom    4 type  1   force =     0.00000697   -0.00021651   -0.00035241
     atom    5 type  1   force =    -0.00045159   -0.00035669    0.00033413
     atom    6 type  1   force =    -0.00018422    0.00038267   -0.00004391
     atom    7 type  1   force =    -0.00019123   -0.00053029    0.00034161
     atom    8 type  1   force =    -0.00002268   -0.00006440   -0.00028090
     atom    9 type  1   force =    -0.00002244   -0.00002958    0.00009059
     atom   10 type  1   force =    -0.00021029   -0.00010688   -0.00069801
     atom   11 type  1   force =    -0.00027182   -0.00029185   -0.00038880
     atom   12 type  1   force =    -0.00017076    0.00000030   -0.00004837
     atom   13 type  1   force =    -0.00017110   -0.00033096   -0.00004579
     atom   14 type  1   force =    -0.00003164    0.00013024    0.00046559
     atom   15 type  1   force =    -0.00052090    0.00039100    0.00054184
     atom   16 type  1   force =     0.00066463    0.00051346    0.00018810
     atom   17 type  1   force =    -0.00037775    0.00007728    0.00005371
     atom   18 type  1   force =     0.00020447   -0.00011171    0.00039145
     atom   19 type  1   force =     0.00057289    0.00022483   -0.00010241
     atom   20 type  1   force =     0.00007842    0.00021824    0.00007127
     atom   21 type  1   force =     0.00018345   -0.00056251    0.00010768
     atom   22 type  1   force =    -0.00008202    0.00060899    0.00019154
     atom   23 type  1   force =     0.00012763   -0.00006964   -0.00014587
     atom   24 type  1   force =     0.00013449    0.00009358   -0.00001687
     atom   25 type  1   force =     0.00007715   -0.00017375    0.00031827
     atom   26 type  1   force =     0.00033685   -0.00023875   -0.00025369
     atom   27 type  1   force =    -0.00016891    0.00010048    0.00010840
     atom   28 type  1   force =    -0.00009031    0.00024699   -0.00009842
     atom   29 type  1   force =     0.00085651   -0.00033168   -0.00010176
     atom   30 type  1   force =    -0.00024599    0.00003899    0.00019958
     atom   31 type  1   force =    -0.00003930   -0.00009998   -0.00035629
     atom   32 type  1   force =    -0.00008768    0.00025435   -0.00003709

     Total force =     0.002786     Total SCF correction =     0.000428
     SCF correction compared to forces is large: reduce conv_thr to get better values


     Computing stress (Cartesian axis) and pressure

          total   stress  (Ry/bohr**3)                   (kbar)     P=   -2.23
  -0.00001513  -0.00000000  -0.00000001         -2.23     -0.00     -0.00
  -0.00000000  -0.00001513  -0.00000000         -0.00     -2.23     -0.00
  -0.00000001  -0.00000000  -0.00001513         -0.00     -0.00     -2.23


     Writing output data file fe_scf_fcc_2.save/
 
     init_run     :      5.20s CPU      5.41s WALL (       1 calls)
     electrons    :     76.08s CPU     85.88s WALL (       1 calls)
     forces       :      1.07s CPU      1.13s WALL (       1 calls)
     stress       :      3.48s CPU      3.50s WALL (       1 calls)

     Called by init_run:
     wfcinit      :      4.96s CPU      5.12s WALL (       1 calls)
     potinit      :      0.12s CPU      0.12s WALL (       1 calls)
     hinit0       :      0.11s CPU      0.14s WALL (       1 calls)

     Called by electrons:
     c_bands      :     66.78s CPU     76.26s WALL (       9 calls)
     sum_band     :      8.39s CPU      8.69s WALL (       9 calls)
     v_of_rho     :      0.06s CPU      0.07s WALL (       9 calls)
     newd         :      0.05s CPU      0.06s WALL (       9 calls)
     PAW_pot      :      0.87s CPU      0.88s WALL (       9 calls)
     mix_rho      :      0.02s CPU      0.02s WALL (       9 calls)

     Called by c_bands:
     init_us_2    :      1.32s CPU      1.36s WALL (    1323 calls)
     cegterg      :     63.25s CPU     64.89s WALL (     567 calls)

     Called by sum_band:
     sum_band:bec :      0.10s CPU      0.10s WALL (     567 calls)
     addusdens    :      0.04s CPU      0.05s WALL (       9 calls)

     Called by *egterg:
     h_psi        :     42.73s CPU     44.17s WALL (    2148 calls)
     s_psi        :      3.55s CPU      3.59s WALL (    2148 calls)
     g_psi        :      0.15s CPU      0.16s WALL (    1518 calls)
     cdiaghg      :     13.25s CPU     13.31s WALL (    2022 calls)

     Called by h_psi:
     h_psi:pot    :     42.50s CPU     43.93s WALL (    2148 calls)
     h_psi:calbec :      3.98s CPU      4.27s WALL (    2148 calls)
     vloc_psi     :     34.81s CPU     35.94s WALL (    2148 calls)
     add_vuspsi   :      3.68s CPU      3.70s WALL (    2148 calls)

     General routines
     calbec       :      6.13s CPU      6.56s WALL (    3030 calls)
     fft          :      0.14s CPU      0.19s WALL (     142 calls)
     ffts         :      0.01s CPU      0.01s WALL (      18 calls)
     fftw         :     38.01s CPU     39.24s WALL (  223304 calls)
     interpolate  :      0.01s CPU      0.01s WALL (       9 calls)
 
     Parallel routines
     fft_scatt_xy :      3.72s CPU      3.84s WALL (  223464 calls)
     fft_scatt_yz :     19.33s CPU     19.99s WALL (  223464 calls)
 
     PWSCF        :  1m27.23s CPU     1m37.96s WALL

 
   This run was terminated on:   1:22:30  12Mar2020            

=------------------------------------------------------------------------------=
   JOB DONE.
=------------------------------------------------------------------------------=
