
     Program PWSCF v.6.3 starts on 12Mar2020 at  1: 4:55 

     This program is part of the open-source Quantum ESPRESSO suite
     for quantum simulation of materials; please cite
         "P. Giannozzi et al., J. Phys.:Condens. Matter 21 395502 (2009);
         "P. Giannozzi et al., J. Phys.:Condens. Matter 29 465901 (2017);
          URL http://www.quantum-espresso.org", 
     in publications or presentations arising from this work. More details at
     http://www.quantum-espresso.org/quote

     Parallel version (MPI & OpenMP), running on      20 processor cores
     Number of MPI processes:                20
     Threads/MPI process:                     1

     MPI processes distributed on     1 nodes
     R & G space division:  proc/nbgrp/npool/nimage =      20
     Reading input from wd/kpoints/file_000132.in
Warning: card &IONS ignored
Warning: card ION_DYNAMICS = 'BFGS', ignored
Warning: card / ignored
Warning: card &CELL ignored
Warning: card CELL_DYNAMICS = 'BFGS', ignored
Warning: card CELL_FACTOR = 2.0, ignored
Warning: card PRESS = 0.0, ignored
Warning: card / ignored

     Current dimensions of program PWSCF are:
     Max number of different atomic species (ntypx) = 10
     Max number of k-points (npk) =  40000
     Max angular momentum in pseudopotentials (lmaxx) =  3
     Message from routine read_upf::
     Pseudo file /rds/homes/b/bxp912/pp/Al.pbe-nl-kjpaw_psl.1.0.0.UPF has been successfully fixed on the fly.
To avoid this message in the future you can permanently fix 
 your pseudo files following instructions given in: 
https://gitlab.com/QEF/q-e/blob/master/upftools/how_to_fix_upf.md
               file Al.pbe-nl-kjpaw_psl.1.0.0.UPF: wavefunction(s)  3S 3P renormalized

     Subspace diagonalization in iterative solution of the eigenvalue problem:
     a serial algorithm will be used

 
     Parallelization info
     --------------------
     sticks:   dense  smooth     PW     G-vecs:    dense   smooth      PW
     Min          96      96     27                 3225     3198     487
     Max          98      97     28                 3241     3201     490
     Sum        1941    1933    553                64589    63989    9771
 


     bravais-lattice index     =            0
     lattice parameter (alat)  =      15.2712  a.u.
     unit-cell volume          =    3561.3897 (a.u.)^3
     number of atoms/cell      =           32
     number of atomic types    =            1
     number of electrons       =        96.00
     number of Kohn-Sham states=           58
     kinetic-energy cutoff     =      26.0000  Ry
     charge density cutoff     =     105.0000  Ry
     convergence threshold     =      1.0E-06
     mixing beta               =       0.1000
     number of iterations used =           10  TF        mixing
     Exchange-correlation      = SLA PW PBX PBC ( 1  4  3  4 0 0)

     celldm(1)=  15.271200  celldm(2)=   0.000000  celldm(3)=   0.000000
     celldm(4)=   0.000000  celldm(5)=   0.000000  celldm(6)=   0.000000

     crystal axes: (cart. coord. in units of alat)
               a(1) = (   1.000000   0.000000   0.000000 )  
               a(2) = (   0.000000   1.000000   0.000000 )  
               a(3) = (   0.000000   0.000000   1.000000 )  

     reciprocal axes: (cart. coord. in units 2 pi/alat)
               b(1) = (  1.000000  0.000000  0.000000 )  
               b(2) = (  0.000000  1.000000  0.000000 )  
               b(3) = (  0.000000  0.000000  1.000000 )  


     PseudoPot. # 1 for Al read from file:
     /rds/homes/b/bxp912/pp/Al.pbe-nl-kjpaw_psl.1.0.0.UPF
     MD5 check sum: 339dbea23cf3ab9a065ad45c0f9085d7
     Pseudo is Projector augmented-wave + core cor, Zval =  3.0
     Generated using "atomic" code by A. Dal Corso v.5.1
     Shape of augmentation charge: PSQ
     Using radial grid of 1135 points,  4 beta functions with: 
                l(1) =   0
                l(2) =   0
                l(3) =   1
                l(4) =   1
     Q(r) pseudized with 0 coefficients 


     atomic species   valence    mass     pseudopotential
        Al             3.00    26.98200     Al( 1.00)

     No symmetry found



   Cartesian axes

     site n.     atom                  positions (alat units)
         1           Al  tau(   1) = (  -0.0000327   0.0000095   0.0000680  )
         2           Al  tau(   2) = (   0.2500796   0.2498100   0.0000703  )
         3           Al  tau(   3) = (   0.2499071   0.0000305   0.2502955  )
         4           Al  tau(   4) = (  -0.0000200   0.2502187   0.2501837  )
         5           Al  tau(   5) = (   0.0002558   0.0002521   0.4998810  )
         6           Al  tau(   6) = (   0.2501194   0.2498326   0.5000036  )
         7           Al  tau(   7) = (   0.2500278   0.0001539   0.7498880  )
         8           Al  tau(   8) = (   0.0000549   0.2501136   0.7502101  )
         9           Al  tau(   9) = (   0.0002375   0.5001078  -0.0000154  )
        10           Al  tau(  10) = (   0.2501396   0.7501762   0.0004054  )
        11           Al  tau(  11) = (   0.2501891   0.5001088   0.2502510  )
        12           Al  tau(  12) = (   0.0000383   0.7500455   0.2500253  )
        13           Al  tau(  13) = (   0.0001102   0.5001562   0.5000990  )
        14           Al  tau(  14) = (   0.2499640   0.7500632   0.4998706  )
        15           Al  tau(  15) = (   0.2503366   0.4997894   0.7496960  )
        16           Al  tau(  16) = (  -0.0003280   0.7497055   0.7499931  )
        17           Al  tau(  17) = (   0.5002037  -0.0001004  -0.0000387  )
        18           Al  tau(  18) = (   0.7499123   0.2500941  -0.0002332  )
        19           Al  tau(  19) = (   0.7496354  -0.0000959   0.2500771  )
        20           Al  tau(  20) = (   0.4999751   0.2499614   0.2498317  )
        21           Al  tau(  21) = (   0.4999211   0.0002929   0.4999726  )
        22           Al  tau(  22) = (   0.7500684   0.2496958   0.4999523  )
        23           Al  tau(  23) = (   0.7500357  -0.0000687   0.7500257  )
        24           Al  tau(  24) = (   0.5000114   0.2498864   0.7499948  )
        25           Al  tau(  25) = (   0.4998526   0.5001156  -0.0002192  )
        26           Al  tau(  26) = (   0.7497723   0.7500978   0.0002736  )
        27           Al  tau(  27) = (   0.7501007   0.4998018   0.2499462  )
        28           Al  tau(  28) = (   0.5000878   0.7497908   0.2502093  )
        29           Al  tau(  29) = (   0.4996761   0.5001027   0.5000404  )
        30           Al  tau(  30) = (   0.7501658   0.7499872   0.4998547  )
        31           Al  tau(  31) = (   0.7499472   0.5000095   0.7501393  )
        32           Al  tau(  32) = (   0.5000142   0.7499486   0.7499177  )

     number of k points=    14  Marzari-Vanderbilt smearing, width (Ry)=  0.0010
                       cart. coord. in units 2pi/alat
        k(    1) = (   0.1666667   0.1666667   0.1666667), wk =   0.1481481
        k(    2) = (   0.1666667   0.1666667  -0.5000000), wk =   0.1481481
        k(    3) = (   0.1666667  -0.5000000  -0.5000000), wk =   0.1481481
        k(    4) = (  -0.5000000  -0.5000000  -0.5000000), wk =   0.0740741
        k(    5) = (  -0.1666667  -0.1666667   0.1666667), wk =   0.1481481
        k(    6) = (  -0.1666667   0.1666667  -0.1666667), wk =   0.1481481
        k(    7) = (   0.1666667  -0.1666667  -0.1666667), wk =   0.1481481
        k(    8) = (  -0.1666667   0.1666667   0.5000000), wk =   0.1481481
        k(    9) = (  -0.5000000  -0.1666667   0.1666667), wk =   0.1481481
        k(   10) = (   0.5000000  -0.1666667  -0.1666667), wk =   0.1481481
        k(   11) = (  -0.1666667  -0.5000000   0.1666667), wk =   0.1481481
        k(   12) = (  -0.1666667   0.5000000  -0.1666667), wk =   0.1481481
        k(   13) = (  -0.5000000   0.1666667   0.5000000), wk =   0.1481481
        k(   14) = (  -0.5000000   0.5000000   0.1666667), wk =   0.1481481

     Dense  grid:    64589 G-vectors     FFT dimensions: (  50,  50,  50)

     Smooth grid:    63989 G-vectors     FFT dimensions: (  50,  50,  50)

     Estimated max dynamical RAM per process >      16.38 MB

     Estimated total dynamical RAM >     327.61 MB

     Initial potential from superposition of free atoms

     starting charge   95.92671, renormalised to   96.00000
     Starting wfcs are  128 randomized atomic wfcs
     Checking if some PAW data can be deallocated... 

     total cpu time spent up to now is        2.2 secs

     Self-consistent Calculation

     iteration #  1     ecut=    26.00 Ry     beta= 0.10
     Davidson diagonalization with overlap
     ethr =  1.00E-02,  avg # of iterations =  3.0

     Threshold (ethr) on eigenvalues was too large:
     Diagonalizing with lowered threshold

     Davidson diagonalization with overlap
     ethr =  1.93E-04,  avg # of iterations =  3.6

     total cpu time spent up to now is        6.8 secs

     total energy              =   -1264.09862213 Ry
     Harris-Foulkes estimate   =   -1264.10478866 Ry
     estimated scf accuracy    <       0.18105315 Ry

     iteration #  2     ecut=    26.00 Ry     beta= 0.10
     Davidson diagonalization with overlap
     ethr =  1.89E-04,  avg # of iterations =  1.0

     total cpu time spent up to now is        8.3 secs

     total energy              =   -1264.05175571 Ry
     Harris-Foulkes estimate   =   -1264.09943349 Ry
     estimated scf accuracy    <       0.15707875 Ry

     iteration #  3     ecut=    26.00 Ry     beta= 0.10
     Davidson diagonalization with overlap
     ethr =  1.64E-04,  avg # of iterations =  1.0

     total cpu time spent up to now is        9.7 secs

     total energy              =   -1264.05455085 Ry
     Harris-Foulkes estimate   =   -1264.05476065 Ry
     estimated scf accuracy    <       0.00130846 Ry

     iteration #  4     ecut=    26.00 Ry     beta= 0.10
     Davidson diagonalization with overlap
     ethr =  1.36E-06,  avg # of iterations =  4.5

     total cpu time spent up to now is       12.9 secs

     total energy              =   -1264.05506075 Ry
     Harris-Foulkes estimate   =   -1264.05533536 Ry
     estimated scf accuracy    <       0.00058158 Ry

     iteration #  5     ecut=    26.00 Ry     beta= 0.10
     Davidson diagonalization with overlap
     ethr =  6.06E-07,  avg # of iterations =  1.0

     total cpu time spent up to now is       14.4 secs

     total energy              =   -1264.05502238 Ry
     Harris-Foulkes estimate   =   -1264.05510264 Ry
     estimated scf accuracy    <       0.00019709 Ry

     iteration #  6     ecut=    26.00 Ry     beta= 0.10
     Davidson diagonalization with overlap
     ethr =  2.05E-07,  avg # of iterations =  1.0

     total cpu time spent up to now is       15.8 secs

     total energy              =   -1264.05501268 Ry
     Harris-Foulkes estimate   =   -1264.05502735 Ry
     estimated scf accuracy    <       0.00010382 Ry

     iteration #  7     ecut=    26.00 Ry     beta= 0.10
     Davidson diagonalization with overlap
     ethr =  1.08E-07,  avg # of iterations =  2.0

     total cpu time spent up to now is       17.8 secs

     total energy              =   -1264.05503060 Ry
     Harris-Foulkes estimate   =   -1264.05504217 Ry
     estimated scf accuracy    <       0.00012026 Ry

     iteration #  8     ecut=    26.00 Ry     beta= 0.10
     Davidson diagonalization with overlap
     ethr =  1.08E-07,  avg # of iterations =  1.4

     total cpu time spent up to now is       19.3 secs

     total energy              =   -1264.05503241 Ry
     Harris-Foulkes estimate   =   -1264.05503542 Ry
     estimated scf accuracy    <       0.00000413 Ry

     iteration #  9     ecut=    26.00 Ry     beta= 0.10
     Davidson diagonalization with overlap
     ethr =  4.30E-09,  avg # of iterations =  3.9

     total cpu time spent up to now is       21.7 secs

     total energy              =   -1264.05503198 Ry
     Harris-Foulkes estimate   =   -1264.05503347 Ry
     estimated scf accuracy    <       0.00000320 Ry

     iteration # 10     ecut=    26.00 Ry     beta= 0.10
     Davidson diagonalization with overlap
     ethr =  3.34E-09,  avg # of iterations =  1.0

     total cpu time spent up to now is       23.1 secs

     End of self-consistent calculation

          k = 0.1667 0.1667 0.1667 (  8003 PWs)   bands (ev):

    -3.0431  -1.5438  -1.5413  -1.5383  -0.0589  -0.0580  -0.0558  -0.0547
    -0.0533  -0.0498   1.4117   1.4129   1.4151   1.4162   1.4174   1.4180
     1.4202   2.8662   2.8679   2.8690   2.8697   2.8718   2.8744   4.2340
     4.2345   4.2350   4.3315   4.3320   4.3325   5.6428   5.6431   5.6461
     5.6468   5.6482   5.6494   5.7598   7.0610   7.0613   7.0630   7.0646
     7.0656   7.0664   7.0747   7.0772   7.0804   7.4083   7.4089   7.4094
     8.4791   8.4797   8.4814   8.4826   8.4839   8.4844   8.8190   8.8205
     8.8215   8.8237

          k = 0.1667 0.1667-0.5000 (  7946 PWs)   bands (ev):

    -2.5411  -2.5403  -1.0451  -1.0446  -1.0438  -1.0425   0.4339   0.4350
     0.4366   0.4376   0.4392   0.4394   1.8956   1.8966   1.9023   1.9027
     1.9032   1.9038   3.3448   3.3457   3.3460   3.3464   3.3491   3.3499
     4.7069   4.7072   4.7078   4.7083   4.7731   4.7741   4.7744   4.7753
     4.8036   4.8046   6.1410   6.1415   6.1423   6.1437   6.2249   6.2252
     6.2260   6.2267   7.5419   7.5426   7.5431   7.5446   7.6426   7.6436
     7.8584   7.8588   7.8591   7.8599   8.9807   8.9809   8.9821   8.9826
     9.3411   9.3428

          k = 0.1667-0.5000-0.5000 (  7948 PWs)   bands (ev):

    -2.0418  -2.0411  -2.0390  -2.0382  -0.5503  -0.5496  -0.5474  -0.5466
     0.9253   0.9260   0.9282   0.9290   2.3778   2.3784   2.3795   2.3805
     2.3815   2.3834   2.3841   2.3846   3.8177   3.8183   3.8195   3.8206
     3.8214   3.8234   3.8241   3.8246   5.1730   5.1737   5.1761   5.1770
     5.2768   5.2775   5.2785   5.2795   5.2806   5.2824   5.2832   5.2838
     6.6692   6.6697   6.6709   6.6716   8.1014   8.1020   8.1031   8.1038
     8.4132   8.4138   8.4155   8.4162   9.3912   9.3917   9.3938   9.3947
     9.3971   9.3982

          k =-0.5000-0.5000-0.5000 (  8024 PWs)   bands (ev):

    -1.5447  -1.5440  -1.5432  -1.5421  -1.5404  -1.5396  -1.5380  -1.5367
     2.8574   2.8579   2.8588   2.8595   2.8603   2.8609   2.8615   2.8620
     2.8630   2.8633   2.8636   2.8639   2.8642   2.8647   2.8655   2.8658
     2.8663   2.8673   2.8679   2.8682   2.8687   2.8703   2.8718   2.8734
     7.1504   7.1518   7.1522   7.1525   7.1536   7.1542   7.1548   7.1549
     7.1553   7.1556   7.1571   7.1574   7.1578   7.1585   7.1587   7.1589
     7.1596   7.1603   7.1607   7.1609   7.1622   7.1626   7.1639   7.1642
    11.3570  11.3584

          k =-0.1667-0.1667 0.1667 (  8003 PWs)   bands (ev):

    -3.0431  -1.5432  -1.5414  -1.5389  -0.0586  -0.0573  -0.0560  -0.0546
    -0.0522  -0.0519   1.4112   1.4144   1.4148   1.4157   1.4171   1.4180
     1.4203   2.8670   2.8679   2.8687   2.8699   2.8715   2.8740   4.2342
     4.2345   4.2348   4.3317   4.3320   4.3323   5.6419   5.6449   5.6454
     5.6465   5.6482   5.6496   5.7598   7.0610   7.0624   7.0632   7.0642
     7.0651   7.0660   7.0752   7.0773   7.0798   7.4085   7.4089   7.4092
     8.4794   8.4805   8.4816   8.4824   8.4830   8.4844   8.8193   8.8205
     8.8220   8.8231

          k =-0.1667 0.1667-0.1667 (  8003 PWs)   bands (ev):

    -3.0431  -1.5437  -1.5412  -1.5385  -0.0590  -0.0577  -0.0554  -0.0544
    -0.0528  -0.0513   1.4122   1.4130   1.4144   1.4156   1.4176   1.4187
     1.4200   2.8673   2.8678   2.8685   2.8696   2.8719   2.8740   4.2340
     4.2345   4.2350   4.3314   4.3320   4.3326   5.6429   5.6436   5.6448
     5.6461   5.6487   5.6502   5.7598   7.0612   7.0619   7.0627   7.0644
     7.0655   7.0665   7.0748   7.0773   7.0800   7.4083   7.4089   7.4095
     8.4794   8.4801   8.4809   8.4828   8.4835   8.4845   8.8195   8.8203
     8.8217   8.8232

          k = 0.1667-0.1667-0.1667 (  8003 PWs)   bands (ev):

    -3.0431  -1.5434  -1.5418  -1.5382  -0.0591  -0.0573  -0.0559  -0.0553
    -0.0540  -0.0490   1.4123   1.4130   1.4139   1.4159   1.4170   1.4176
     1.4219   2.8662   2.8676   2.8685   2.8703   2.8713   2.8751   4.2339
     4.2345   4.2351   4.3313   4.3320   4.3326   5.6427   5.6438   5.6452
     5.6465   5.6478   5.6504   5.7598   7.0607   7.0621   7.0626   7.0643
     7.0650   7.0666   7.0755   7.0770   7.0805   7.4082   7.4089   7.4095
     8.4788   8.4804   8.4810   8.4829   8.4834   8.4846   8.8194   8.8197
     8.8219   8.8231

          k =-0.1667 0.1667 0.5000 (  7946 PWs)   bands (ev):

    -2.5411  -2.5403  -1.0457  -1.0445  -1.0437  -1.0421   0.4341   0.4350
     0.4357   0.4372   0.4393   0.4402   1.8954   1.8964   1.9022   1.9030
     1.9031   1.9040   3.3444   3.3453   3.3463   3.3474   3.3488   3.3496
     4.7066   4.7075   4.7076   4.7085   4.7727   4.7736   4.7747   4.7757
     4.8037   4.8046   6.1403   6.1416   6.1424   6.1441   6.2245   6.2253
     6.2261   6.2268   7.5419   7.5429   7.5430   7.5444   7.6426   7.6436
     7.8579   7.8588   7.8593   7.8601   8.9805   8.9811   8.9821   8.9826
     9.3414   9.3425

          k =-0.5000-0.1667 0.1667 (  7946 PWs)   bands (ev):

    -2.5412  -2.5403  -1.0462  -1.0442  -1.0434  -1.0421   0.4342   0.4357
     0.4363   0.4376   0.4385   0.4392   1.8955   1.8963   1.9024   1.9027
     1.9031   1.9040   3.3443   3.3453   3.3466   3.3475   3.3486   3.3495
     4.7069   4.7072   4.7076   4.7086   4.7725   4.7736   4.7749   4.7759
     4.8035   4.8046   6.1398   6.1419   6.1427   6.1441   6.2246   6.2254
     6.2256   6.2271   7.5414   7.5430   7.5434   7.5444   7.6425   7.6436
     7.8583   7.8587   7.8588   7.8602   8.9801   8.9814   8.9815   8.9832
     9.3408   9.3430

          k = 0.5000-0.1667-0.1667 (  7946 PWs)   bands (ev):

    -2.5412  -2.5403  -1.0464  -1.0449  -1.0426  -1.0420   0.4331   0.4343
     0.4367   0.4370   0.4394   0.4411   1.8956   1.8962   1.9020   1.9030
     1.9035   1.9039   3.3437   3.3447   3.3468   3.3473   3.3492   3.3502
     4.7066   4.7074   4.7077   4.7085   4.7719   4.7730   4.7755   4.7763
     4.8037   4.8048   6.1396   6.1412   6.1435   6.1442   6.2245   6.2254
     6.2261   6.2268   7.5416   7.5423   7.5433   7.5450   7.6425   7.6436
     7.8580   7.8589   7.8592   7.8600   8.9804   8.9811   8.9822   8.9826
     9.3409   9.3428

          k =-0.1667-0.5000 0.1667 (  7946 PWs)   bands (ev):

    -2.5409  -2.5406  -1.0463  -1.0455  -1.0427  -1.0415   0.4337   0.4346
     0.4364   0.4368   0.4392   0.4409   1.8956   1.8962   1.9027   1.9029
     1.9032   1.9035   3.3440   3.3442   3.3474   3.3479   3.3488   3.3496
     4.7074   4.7074   4.7077   4.7078   4.7723   4.7724   4.7758   4.7762
     4.8040   4.8043   6.1398   6.1406   6.1434   6.1447   6.2254   6.2255
     6.2258   6.2259   7.5415   7.5425   7.5438   7.5443   7.6429   7.6432
     7.8588   7.8589   7.8592   7.8593   8.9813   8.9813   8.9818   8.9819
     9.3409   9.3428

          k =-0.1667 0.5000-0.1667 (  7946 PWs)   bands (ev):

    -2.5409  -2.5406  -1.0463  -1.0459  -1.0422  -1.0415   0.4339   0.4346
     0.4367   0.4377   0.4386   0.4400   1.8956   1.8961   1.9028   1.9030
     1.9031   1.9037   3.3436   3.3440   3.3474   3.3479   3.3493   3.3497
     4.7073   4.7074   4.7074   4.7082   4.7719   4.7722   4.7763   4.7766
     4.8039   4.8042   6.1397   6.1401   6.1439   6.1447   6.2251   6.2254
     6.2257   6.2265   7.5418   7.5421   7.5438   7.5445   7.6429   7.6432
     7.8585   7.8589   7.8589   7.8598   8.9809   8.9812   8.9817   8.9825
     9.3411   9.3417

          k =-0.5000 0.1667 0.5000 (  7948 PWs)   bands (ev):

    -2.0425  -2.0415  -2.0384  -2.0376  -0.5510  -0.5500  -0.5469  -0.5461
     0.9246   0.9256   0.9288   0.9296   2.3775   2.3783   2.3790   2.3808
     2.3821   2.3830   2.3840   2.3854   3.8175   3.8182   3.8189   3.8207
     3.8220   3.8230   3.8239   3.8253   5.1722   5.1733   5.1767   5.1776
     5.2764   5.2774   5.2779   5.2797   5.2812   5.2821   5.2830   5.2845
     6.6686   6.6697   6.6711   6.6719   8.1008   8.1020   8.1032   8.1041
     8.4125   8.4135   8.4160   8.4167   9.3910   9.3924   9.3943   9.3957
     9.3978   9.3989

          k =-0.5000 0.5000 0.1667 (  7948 PWs)   bands (ev):

    -2.0413  -2.0406  -2.0393  -2.0389  -0.5497  -0.5491  -0.5477  -0.5474
     0.9259   0.9265   0.9279   0.9282   2.3779   2.3789   2.3796   2.3810
     2.3816   2.3831   2.3837   2.3842   3.8178   3.8188   3.8195   3.8209
     3.8216   3.8230   3.8237   3.8242   5.1735   5.1743   5.1758   5.1761
     5.2769   5.2780   5.2786   5.2799   5.2807   5.2821   5.2827   5.2833
     6.6694   6.6699   6.6710   6.6711   8.1015   8.1021   8.1032   8.1033
     8.4136   8.4142   8.4153   8.4156   9.3914   9.3923   9.3932   9.3953
     9.3961   9.3977

     the Fermi energy is     7.8576 ev

!    total energy              =   -1264.05503195 Ry
     Harris-Foulkes estimate   =   -1264.05503224 Ry
     estimated scf accuracy    <       0.00000035 Ry

     total all-electron energy =    -15540.624054 Ry

     The total energy is the sum of the following terms:

     one-electron contribution =     101.27976971 Ry
     hartree contribution      =       0.20236742 Ry
     xc contribution           =     -82.91864321 Ry
     ewald contribution        =    -172.93188273 Ry
     one-center paw contrib.   =   -1109.68604908 Ry
     smearing contrib. (-TS)   =      -0.00059406 Ry

     convergence has been achieved in  10 iterations

     Forces acting on atoms (cartesian axes, Ry/au):

     atom    1 type  1   force =     0.00009417    0.00014704    0.00006801
     atom    2 type  1   force =     0.00000454    0.00019985    0.00018862
     atom    3 type  1   force =     0.00030807   -0.00007671   -0.00043300
     atom    4 type  1   force =    -0.00002648   -0.00018145   -0.00025105
     atom    5 type  1   force =    -0.00035987   -0.00023797    0.00024608
     atom    6 type  1   force =    -0.00003080    0.00041969   -0.00003809
     atom    7 type  1   force =    -0.00006633   -0.00061491    0.00027180
     atom    8 type  1   force =     0.00008042   -0.00011147   -0.00033467
     atom    9 type  1   force =     0.00010065    0.00000873    0.00017308
     atom   10 type  1   force =    -0.00008521   -0.00003789   -0.00052958
     atom   11 type  1   force =    -0.00013047   -0.00038697   -0.00030436
     atom   12 type  1   force =    -0.00007665    0.00007534    0.00005527
     atom   13 type  1   force =    -0.00006873   -0.00024903   -0.00013520
     atom   14 type  1   force =     0.00007795    0.00020594    0.00042086
     atom   15 type  1   force =    -0.00040281    0.00018809    0.00042474
     atom   16 type  1   force =     0.00064137    0.00054628    0.00006482
     atom   17 type  1   force =    -0.00047261    0.00015830    0.00011481
     atom   18 type  1   force =     0.00010942   -0.00008494    0.00054768
     atom   19 type  1   force =     0.00039679    0.00016891   -0.00000354
     atom   20 type  1   force =     0.00000618    0.00017062    0.00012532
     atom   21 type  1   force =     0.00017836   -0.00042762   -0.00000541
     atom   22 type  1   force =    -0.00021861    0.00056732    0.00006294
     atom   23 type  1   force =     0.00001179   -0.00020399   -0.00030722
     atom   24 type  1   force =     0.00003615    0.00008516   -0.00020628
     atom   25 type  1   force =     0.00008471   -0.00012352    0.00034652
     atom   26 type  1   force =     0.00018797   -0.00018952   -0.00015551
     atom   27 type  1   force =    -0.00027180   -0.00014309    0.00018712
     atom   28 type  1   force =    -0.00021503    0.00026007    0.00000262
     atom   29 type  1   force =     0.00082676   -0.00029393   -0.00024019
     atom   30 type  1   force =    -0.00036353    0.00008296    0.00022753
     atom   31 type  1   force =    -0.00017573   -0.00021080   -0.00047107
     atom   32 type  1   force =    -0.00018062    0.00028951   -0.00011264

     Total force =     0.002651     Total SCF correction =     0.000676
     SCF correction compared to forces is large: reduce conv_thr to get better values


     Computing stress (Cartesian axis) and pressure

          total   stress  (Ry/bohr**3)                   (kbar)     P=   -1.48
  -0.00001005  -0.00000001   0.00000001         -1.48     -0.00      0.00
  -0.00000001  -0.00000995  -0.00000000         -0.00     -1.46     -0.00
   0.00000001  -0.00000000  -0.00001022          0.00     -0.00     -1.50


     Writing output data file fe_scf_fcc_2.save/
 
     init_run     :      1.34s CPU      1.43s WALL (       1 calls)
     electrons    :     20.38s CPU     20.94s WALL (       1 calls)
     forces       :      0.28s CPU      0.29s WALL (       1 calls)
     stress       :      0.84s CPU      0.85s WALL (       1 calls)

     Called by init_run:
     wfcinit      :      1.12s CPU      1.16s WALL (       1 calls)
     potinit      :      0.11s CPU      0.12s WALL (       1 calls)
     hinit0       :      0.07s CPU      0.11s WALL (       1 calls)

     Called by electrons:
     c_bands      :     16.85s CPU     17.29s WALL (      11 calls)
     sum_band     :      2.32s CPU      2.43s WALL (      11 calls)
     v_of_rho     :      0.08s CPU      0.08s WALL (      11 calls)
     newd         :      0.06s CPU      0.06s WALL (      11 calls)
     PAW_pot      :      1.07s CPU      1.07s WALL (      11 calls)
     mix_rho      :      0.03s CPU      0.03s WALL (      11 calls)

     Called by c_bands:
     init_us_2    :      0.32s CPU      0.33s WALL (     350 calls)
     cegterg      :     15.81s CPU     16.24s WALL (     154 calls)

     Called by sum_band:
     sum_band:bec :      0.03s CPU      0.03s WALL (     154 calls)
     addusdens    :      0.04s CPU      0.05s WALL (      11 calls)

     Called by *egterg:
     h_psi        :     10.59s CPU     10.97s WALL (     494 calls)
     s_psi        :      0.77s CPU      0.77s WALL (     494 calls)
     g_psi        :      0.03s CPU      0.03s WALL (     326 calls)
     cdiaghg      :      3.33s CPU      3.35s WALL (     466 calls)

     Called by h_psi:
     h_psi:pot    :     10.55s CPU     10.93s WALL (     494 calls)
     h_psi:calbec :      0.98s CPU      1.05s WALL (     494 calls)
     vloc_psi     :      8.78s CPU      9.08s WALL (     494 calls)
     add_vuspsi   :      0.79s CPU      0.80s WALL (     494 calls)

     General routines
     calbec       :      1.71s CPU      1.81s WALL (     718 calls)
     fft          :      0.14s CPU      0.19s WALL (     168 calls)
     ffts         :      0.01s CPU      0.01s WALL (      22 calls)
     fftw         :      9.76s CPU     10.10s WALL (   56884 calls)
     interpolate  :      0.01s CPU      0.01s WALL (      11 calls)
 
     Parallel routines
     fft_scatt_xy :      0.92s CPU      0.95s WALL (   57074 calls)
     fft_scatt_yz :      5.08s CPU      5.29s WALL (   57074 calls)
 
     PWSCF        :    23.74s CPU        24.65s WALL

 
   This run was terminated on:   1: 5:20  12Mar2020            

=------------------------------------------------------------------------------=
   JOB DONE.
=------------------------------------------------------------------------------=
