--------------------------------------------------------------------------
WARNING: There was an error initializing an OpenFabrics device.

  Local host:   bear-pg0211u40b
  Local device: mlx5_0
--------------------------------------------------------------------------

     Program PWSCF v.6.3 starts on 12Mar2020 at  1: 3:57 

     This program is part of the open-source Quantum ESPRESSO suite
     for quantum simulation of materials; please cite
         "P. Giannozzi et al., J. Phys.:Condens. Matter 21 395502 (2009);
         "P. Giannozzi et al., J. Phys.:Condens. Matter 29 465901 (2017);
          URL http://www.quantum-espresso.org", 
     in publications or presentations arising from this work. More details at
     http://www.quantum-espresso.org/quote

     Parallel version (MPI & OpenMP), running on      20 processor cores
     Number of MPI processes:                20
     Threads/MPI process:                     1

     MPI processes distributed on     1 nodes
     R & G space division:  proc/nbgrp/npool/nimage =      20
     Reading input from wd/ecut/file_000053.in
Warning: card &IONS ignored
Warning: card ION_DYNAMICS = 'BFGS', ignored
Warning: card / ignored
Warning: card &CELL ignored
Warning: card CELL_DYNAMICS = 'BFGS', ignored
Warning: card CELL_FACTOR = 2.0, ignored
Warning: card PRESS = 0.0, ignored
Warning: card / ignored

     Current dimensions of program PWSCF are:
     Max number of different atomic species (ntypx) = 10
     Max number of k-points (npk) =  40000
     Max angular momentum in pseudopotentials (lmaxx) =  3
     Message from routine read_upf::
     Pseudo file /rds/homes/b/bxp912/pp/Al.pbe-nl-kjpaw_psl.1.0.0.UPF has been successfully fixed on the fly.
To avoid this message in the future you can permanently fix 
 your pseudo files following instructions given in: 
https://gitlab.com/QEF/q-e/blob/master/upftools/how_to_fix_upf.md
               file Al.pbe-nl-kjpaw_psl.1.0.0.UPF: wavefunction(s)  3S 3P renormalized

     Subspace diagonalization in iterative solution of the eigenvalue problem:
     a serial algorithm will be used

 
     Parallelization info
     --------------------
     sticks:   dense  smooth     PW     G-vecs:    dense   smooth      PW
     Min          96      96     27                 3225     3198     487
     Max          98      97     28                 3241     3201     490
     Sum        1941    1933    553                64589    63989    9771
 


     bravais-lattice index     =            0
     lattice parameter (alat)  =      15.2712  a.u.
     unit-cell volume          =    3561.3897 (a.u.)^3
     number of atoms/cell      =           32
     number of atomic types    =            1
     number of electrons       =        96.00
     number of Kohn-Sham states=           58
     kinetic-energy cutoff     =      26.0000  Ry
     charge density cutoff     =     105.0000  Ry
     convergence threshold     =      1.0E-06
     mixing beta               =       0.1000
     number of iterations used =           10  TF        mixing
     Exchange-correlation      = SLA PW PBX PBC ( 1  4  3  4 0 0)

     celldm(1)=  15.271200  celldm(2)=   0.000000  celldm(3)=   0.000000
     celldm(4)=   0.000000  celldm(5)=   0.000000  celldm(6)=   0.000000

     crystal axes: (cart. coord. in units of alat)
               a(1) = (   1.000000   0.000000   0.000000 )  
               a(2) = (   0.000000   1.000000   0.000000 )  
               a(3) = (   0.000000   0.000000   1.000000 )  

     reciprocal axes: (cart. coord. in units 2 pi/alat)
               b(1) = (  1.000000  0.000000  0.000000 )  
               b(2) = (  0.000000  1.000000  0.000000 )  
               b(3) = (  0.000000  0.000000  1.000000 )  


     PseudoPot. # 1 for Al read from file:
     /rds/homes/b/bxp912/pp/Al.pbe-nl-kjpaw_psl.1.0.0.UPF
     MD5 check sum: 339dbea23cf3ab9a065ad45c0f9085d7
     Pseudo is Projector augmented-wave + core cor, Zval =  3.0
     Generated using "atomic" code by A. Dal Corso v.5.1
     Shape of augmentation charge: PSQ
     Using radial grid of 1135 points,  4 beta functions with: 
                l(1) =   0
                l(2) =   0
                l(3) =   1
                l(4) =   1
     Q(r) pseudized with 0 coefficients 


     atomic species   valence    mass     pseudopotential
        Al             3.00    26.98200     Al( 1.00)

     No symmetry found



   Cartesian axes

     site n.     atom                  positions (alat units)
         1           Al  tau(   1) = (  -0.0000327   0.0000095   0.0000680  )
         2           Al  tau(   2) = (   0.2500796   0.2498100   0.0000703  )
         3           Al  tau(   3) = (   0.2499071   0.0000305   0.2502955  )
         4           Al  tau(   4) = (  -0.0000200   0.2502187   0.2501837  )
         5           Al  tau(   5) = (   0.0002558   0.0002521   0.4998810  )
         6           Al  tau(   6) = (   0.2501194   0.2498326   0.5000036  )
         7           Al  tau(   7) = (   0.2500278   0.0001539   0.7498880  )
         8           Al  tau(   8) = (   0.0000549   0.2501136   0.7502101  )
         9           Al  tau(   9) = (   0.0002375   0.5001078  -0.0000154  )
        10           Al  tau(  10) = (   0.2501396   0.7501762   0.0004054  )
        11           Al  tau(  11) = (   0.2501891   0.5001088   0.2502510  )
        12           Al  tau(  12) = (   0.0000383   0.7500455   0.2500253  )
        13           Al  tau(  13) = (   0.0001102   0.5001562   0.5000990  )
        14           Al  tau(  14) = (   0.2499640   0.7500632   0.4998706  )
        15           Al  tau(  15) = (   0.2503366   0.4997894   0.7496960  )
        16           Al  tau(  16) = (  -0.0003280   0.7497055   0.7499931  )
        17           Al  tau(  17) = (   0.5002037  -0.0001004  -0.0000387  )
        18           Al  tau(  18) = (   0.7499123   0.2500941  -0.0002332  )
        19           Al  tau(  19) = (   0.7496354  -0.0000959   0.2500771  )
        20           Al  tau(  20) = (   0.4999751   0.2499614   0.2498317  )
        21           Al  tau(  21) = (   0.4999211   0.0002929   0.4999726  )
        22           Al  tau(  22) = (   0.7500684   0.2496958   0.4999523  )
        23           Al  tau(  23) = (   0.7500357  -0.0000687   0.7500257  )
        24           Al  tau(  24) = (   0.5000114   0.2498864   0.7499948  )
        25           Al  tau(  25) = (   0.4998526   0.5001156  -0.0002192  )
        26           Al  tau(  26) = (   0.7497723   0.7500978   0.0002736  )
        27           Al  tau(  27) = (   0.7501007   0.4998018   0.2499462  )
        28           Al  tau(  28) = (   0.5000878   0.7497908   0.2502093  )
        29           Al  tau(  29) = (   0.4996761   0.5001027   0.5000404  )
        30           Al  tau(  30) = (   0.7501658   0.7499872   0.4998547  )
        31           Al  tau(  31) = (   0.7499472   0.5000095   0.7501393  )
        32           Al  tau(  32) = (   0.5000142   0.7499486   0.7499177  )

     number of k points=    14  Marzari-Vanderbilt smearing, width (Ry)=  0.0200
                       cart. coord. in units 2pi/alat
        k(    1) = (   0.1666667   0.1666667   0.1666667), wk =   0.1481481
        k(    2) = (   0.1666667   0.1666667  -0.5000000), wk =   0.1481481
        k(    3) = (   0.1666667  -0.5000000  -0.5000000), wk =   0.1481481
        k(    4) = (  -0.5000000  -0.5000000  -0.5000000), wk =   0.0740741
        k(    5) = (  -0.1666667  -0.1666667   0.1666667), wk =   0.1481481
        k(    6) = (  -0.1666667   0.1666667  -0.1666667), wk =   0.1481481
        k(    7) = (   0.1666667  -0.1666667  -0.1666667), wk =   0.1481481
        k(    8) = (  -0.1666667   0.1666667   0.5000000), wk =   0.1481481
        k(    9) = (  -0.5000000  -0.1666667   0.1666667), wk =   0.1481481
        k(   10) = (   0.5000000  -0.1666667  -0.1666667), wk =   0.1481481
        k(   11) = (  -0.1666667  -0.5000000   0.1666667), wk =   0.1481481
        k(   12) = (  -0.1666667   0.5000000  -0.1666667), wk =   0.1481481
        k(   13) = (  -0.5000000   0.1666667   0.5000000), wk =   0.1481481
        k(   14) = (  -0.5000000   0.5000000   0.1666667), wk =   0.1481481

     Dense  grid:    64589 G-vectors     FFT dimensions: (  50,  50,  50)

     Smooth grid:    63989 G-vectors     FFT dimensions: (  50,  50,  50)

     Estimated max dynamical RAM per process >      16.38 MB

     Estimated total dynamical RAM >     327.61 MB

     Initial potential from superposition of free atoms

     starting charge   95.92671, renormalised to   96.00000
     Starting wfcs are  128 randomized atomic wfcs
     Checking if some PAW data can be deallocated... 

     total cpu time spent up to now is        2.2 secs

     Self-consistent Calculation

     iteration #  1     ecut=    26.00 Ry     beta= 0.10
     Davidson diagonalization with overlap
     ethr =  1.00E-02,  avg # of iterations =  3.0

     Threshold (ethr) on eigenvalues was too large:
     Diagonalizing with lowered threshold

     Davidson diagonalization with overlap
     ethr =  1.93E-04,  avg # of iterations =  3.6

     total cpu time spent up to now is        6.9 secs

     total energy              =   -1264.10038576 Ry
     Harris-Foulkes estimate   =   -1264.10655027 Ry
     estimated scf accuracy    <       0.18071360 Ry

     iteration #  2     ecut=    26.00 Ry     beta= 0.10
     Davidson diagonalization with overlap
     ethr =  1.88E-04,  avg # of iterations =  1.0

     total cpu time spent up to now is        8.3 secs

     total energy              =   -1264.05344275 Ry
     Harris-Foulkes estimate   =   -1264.10120107 Ry
     estimated scf accuracy    <       0.15686691 Ry

     iteration #  3     ecut=    26.00 Ry     beta= 0.10
     Davidson diagonalization with overlap
     ethr =  1.63E-04,  avg # of iterations =  1.0

     total cpu time spent up to now is        9.8 secs

     total energy              =   -1264.05631525 Ry
     Harris-Foulkes estimate   =   -1264.05644820 Ry
     estimated scf accuracy    <       0.00061268 Ry

     iteration #  4     ecut=    26.00 Ry     beta= 0.10
     Davidson diagonalization with overlap
     ethr =  6.38E-07,  avg # of iterations =  4.9

     total cpu time spent up to now is       12.9 secs

     total energy              =   -1264.05693574 Ry
     Harris-Foulkes estimate   =   -1264.05709747 Ry
     estimated scf accuracy    <       0.00035587 Ry

     iteration #  5     ecut=    26.00 Ry     beta= 0.10
     Davidson diagonalization with overlap
     ethr =  3.71E-07,  avg # of iterations =  1.0

     total cpu time spent up to now is       14.3 secs

     total energy              =   -1264.05674726 Ry
     Harris-Foulkes estimate   =   -1264.05694594 Ry
     estimated scf accuracy    <       0.00023007 Ry

     iteration #  6     ecut=    26.00 Ry     beta= 0.10
     Davidson diagonalization with overlap
     ethr =  2.40E-07,  avg # of iterations =  2.0

     total cpu time spent up to now is       16.4 secs

     total energy              =   -1264.05680993 Ry
     Harris-Foulkes estimate   =   -1264.05681067 Ry
     estimated scf accuracy    <       0.00001359 Ry

     iteration #  7     ecut=    26.00 Ry     beta= 0.10
     Davidson diagonalization with overlap
     ethr =  1.42E-08,  avg # of iterations =  2.4

     total cpu time spent up to now is       18.1 secs

     total energy              =   -1264.05680129 Ry
     Harris-Foulkes estimate   =   -1264.05681080 Ry
     estimated scf accuracy    <       0.00000574 Ry

     iteration #  8     ecut=    26.00 Ry     beta= 0.10
     Davidson diagonalization with overlap
     ethr =  5.97E-09,  avg # of iterations =  2.1

     total cpu time spent up to now is       19.9 secs

     End of self-consistent calculation

          k = 0.1667 0.1667 0.1667 (  8003 PWs)   bands (ev):

    -3.0431  -1.5438  -1.5413  -1.5383  -0.0588  -0.0580  -0.0558  -0.0547
    -0.0533  -0.0498   1.4117   1.4129   1.4151   1.4163   1.4174   1.4180
     1.4202   2.8661   2.8679   2.8692   2.8699   2.8718   2.8743   4.2338
     4.2345   4.2352   4.3312   4.3320   4.3328   5.6428   5.6431   5.6461
     5.6468   5.6482   5.6495   5.7598   7.0610   7.0613   7.0630   7.0647
     7.0656   7.0664   7.0748   7.0773   7.0804   7.4081   7.4089   7.4097
     8.4791   8.4797   8.4813   8.4827   8.4840   8.4845   8.8190   8.8205
     8.8216   8.8237

          k = 0.1667 0.1667-0.5000 (  7946 PWs)   bands (ev):

    -2.5419  -2.5395  -1.0457  -1.0449  -1.0434  -1.0418   0.4332   0.4350
     0.4366   0.4377   0.4393   0.4399   1.8955   1.8967   1.9014   1.9021
     1.9039   1.9047   3.3446   3.3456   3.3461   3.3463   3.3487   3.3506
     4.7061   4.7066   4.7085   4.7092   4.7730   4.7742   4.7743   4.7754
     4.8035   4.8047   6.1404   6.1411   6.1427   6.1444   6.2247   6.2252
     6.2260   6.2269   7.5414   7.5420   7.5436   7.5453   7.6424   7.6437
     7.8575   7.8582   7.8598   7.8608   8.9806   8.9809   8.9821   8.9828
     9.3410   9.3429

          k = 0.1667-0.5000-0.5000 (  7948 PWs)   bands (ev):

    -2.0423  -2.0413  -2.0389  -2.0376  -0.5507  -0.5497  -0.5473  -0.5460
     0.9249   0.9259   0.9283   0.9296   2.3774   2.3787   2.3795   2.3804
     2.3813   2.3834   2.3844   2.3851   3.8172   3.8187   3.8194   3.8204
     3.8212   3.8234   3.8244   3.8250   5.1725   5.1736   5.1761   5.1776
     5.2764   5.2777   5.2784   5.2793   5.2805   5.2824   5.2835   5.2841
     6.6691   6.6697   6.6709   6.6717   8.1013   8.1019   8.1031   8.1039
     8.4127   8.4135   8.4156   8.4169   9.3909   9.3921   9.3936   9.3945
     9.3972   9.3985

          k =-0.5000-0.5000-0.5000 (  8024 PWs)   bands (ev):

    -1.5458  -1.5450  -1.5424  -1.5418  -1.5407  -1.5388  -1.5384  -1.5357
     2.8568   2.8571   2.8584   2.8590   2.8602   2.8612   2.8614   2.8624
     2.8626   2.8633   2.8636   2.8641   2.8645   2.8649   2.8655   2.8657
     2.8665   2.8674   2.8680   2.8682   2.8690   2.8706   2.8720   2.8741
     7.1502   7.1512   7.1519   7.1524   7.1536   7.1542   7.1547   7.1549
     7.1550   7.1558   7.1569   7.1574   7.1581   7.1583   7.1586   7.1593
     7.1597   7.1604   7.1608   7.1610   7.1620   7.1627   7.1644   7.1646
    11.3569  11.5716

          k =-0.1667-0.1667 0.1667 (  8003 PWs)   bands (ev):

    -3.0431  -1.5432  -1.5413  -1.5388  -0.0586  -0.0573  -0.0560  -0.0545
    -0.0522  -0.0519   1.4112   1.4144   1.4148   1.4158   1.4171   1.4180
     1.4203   2.8670   2.8679   2.8687   2.8700   2.8715   2.8741   4.2341
     4.2345   4.2350   4.3315   4.3320   4.3325   5.6419   5.6449   5.6454
     5.6465   5.6482   5.6496   5.7598   7.0610   7.0625   7.0633   7.0642
     7.0651   7.0660   7.0753   7.0773   7.0798   7.4084   7.4089   7.4094
     8.4794   8.4806   8.4816   8.4823   8.4830   8.4844   8.8192   8.8206
     8.8220   8.8231

          k =-0.1667 0.1667-0.1667 (  8003 PWs)   bands (ev):

    -3.0431  -1.5437  -1.5411  -1.5385  -0.0590  -0.0576  -0.0554  -0.0543
    -0.0528  -0.0512   1.4123   1.4129   1.4145   1.4156   1.4176   1.4188
     1.4201   2.8673   2.8677   2.8685   2.8698   2.8719   2.8740   4.2338
     4.2345   4.2353   4.3312   4.3320   4.3329   5.6430   5.6436   5.6448
     5.6461   5.6487   5.6503   5.7599   7.0611   7.0620   7.0627   7.0645
     7.0656   7.0665   7.0748   7.0773   7.0800   7.4081   7.4089   7.4097
     8.4793   8.4801   8.4809   8.4829   8.4836   8.4846   8.8194   8.8203
     8.8216   8.8232

          k = 0.1667-0.1667-0.1667 (  8003 PWs)   bands (ev):

    -3.0431  -1.5434  -1.5418  -1.5382  -0.0590  -0.0573  -0.0559  -0.0553
    -0.0540  -0.0490   1.4124   1.4129   1.4139   1.4159   1.4169   1.4177
     1.4219   2.8663   2.8674   2.8686   2.8704   2.8713   2.8752   4.2337
     4.2345   4.2354   4.3311   4.3320   4.3329   5.6427   5.6438   5.6452
     5.6465   5.6479   5.6504   5.7598   7.0606   7.0621   7.0626   7.0644
     7.0649   7.0667   7.0755   7.0771   7.0805   7.4080   7.4089   7.4098
     8.4787   8.4805   8.4811   8.4829   8.4834   8.4847   8.8195   8.8198
     8.8219   8.8231

          k =-0.1667 0.1667 0.5000 (  7946 PWs)   bands (ev):

    -2.5419  -2.5395  -1.0463  -1.0443  -1.0438  -1.0415   0.4335   0.4344
     0.4362   0.4378   0.4392   0.4406   1.8952   1.8966   1.9013   1.9025
     1.9037   1.9050   3.3443   3.3454   3.3462   3.3474   3.3484   3.3504
     4.7056   4.7070   4.7082   4.7095   4.7726   4.7738   4.7746   4.7758
     4.8036   4.8048   6.1397   6.1418   6.1423   6.1447   6.2242   6.2254
     6.2260   6.2271   7.5412   7.5423   7.5437   7.5451   7.6424   7.6437
     7.8570   7.8587   7.8595   7.8611   8.9803   8.9812   8.9820   8.9828
     9.3408   9.3425

          k =-0.5000-0.1667 0.1667 (  7946 PWs)   bands (ev):

    -2.5420  -2.5394  -1.0469  -1.0441  -1.0433  -1.0416   0.4336   0.4355
     0.4363   0.4377   0.4386   0.4400   1.8954   1.8964   1.9015   1.9020
     1.9038   1.9051   3.3442   3.3454   3.3465   3.3476   3.3481   3.3503
     4.7061   4.7063   4.7083   4.7096   4.7724   4.7737   4.7748   4.7760
     4.8034   4.8048   6.1391   6.1419   6.1428   6.1446   6.2246   6.2253
     6.2256   6.2274   7.5407   7.5424   7.5441   7.5451   7.6424   7.6438
     7.8575   7.8580   7.8595   7.8613   8.9801   8.9813   8.9815   8.9834
     9.3401   9.3436

          k = 0.5000-0.1667-0.1667 (  7946 PWs)   bands (ev):

    -2.5420  -2.5394  -1.0472  -1.0441  -1.0433  -1.0412   0.4323   0.4351
     0.4361   0.4376   0.4386   0.4419   1.8955   1.8963   1.9010   1.9025
     1.9041   1.9049   3.3435   3.3448   3.3465   3.3475   3.3487   3.3509
     4.7056   4.7068   4.7084   4.7095   4.7718   4.7732   4.7754   4.7764
     4.8035   4.8049   6.1388   6.1420   6.1427   6.1450   6.2242   6.2254
     6.2260   6.2271   7.5409   7.5422   7.5433   7.5458   7.6424   7.6438
     7.8570   7.8585   7.8597   7.8611   8.9802   8.9811   8.9821   8.9829
     9.3403   9.3426

          k =-0.1667-0.5000 0.1667 (  7946 PWs)   bands (ev):

    -2.5410  -2.5404  -1.0461  -1.0456  -1.0429  -1.0413   0.4338   0.4345
     0.4364   0.4368   0.4390   0.4411   1.8956   1.8962   1.9026   1.9028
     1.9033   1.9037   3.3440   3.3442   3.3474   3.3478   3.3489   3.3497
     4.7072   4.7073   4.7078   4.7079   4.7723   4.7725   4.7758   4.7763
     4.8040   4.8044   6.1399   6.1405   6.1432   6.1449   6.2254   6.2255
     6.2259   6.2260   7.5414   7.5426   7.5438   7.5444   7.6429   7.6433
     7.8587   7.8588   7.8593   7.8595   8.9813   8.9813   8.9818   8.9819
     9.3408   9.3429

          k =-0.1667 0.5000-0.1667 (  7946 PWs)   bands (ev):

    -2.5410  -2.5404  -1.0464  -1.0458  -1.0423  -1.0414   0.4338   0.4347
     0.4368   0.4376   0.4385   0.4402   1.8956   1.8961   1.9026   1.9029
     1.9031   1.9039   3.3436   3.3440   3.3474   3.3479   3.3494   3.3498
     4.7072   4.7073   4.7073   4.7085   4.7719   4.7722   4.7763   4.7766
     4.8039   4.8042   6.1396   6.1402   6.1438   6.1448   6.2251   6.2255
     6.2256   6.2267   7.5417   7.5422   7.5437   7.5446   7.6429   7.6433
     7.8585   7.8588   7.8588   7.8601   8.9810   8.9811   8.9817   8.9826
     9.3412   9.3416

          k =-0.5000 0.1667 0.5000 (  7948 PWs)   bands (ev):

    -2.0437  -2.0410  -2.0388  -2.0366  -0.5521  -0.5495  -0.5472  -0.5450
     0.9235   0.9261   0.9284   0.9306   2.3770   2.3777   2.3791   2.3814
     2.3824   2.3828   2.3839   2.3859   3.8169   3.8175   3.8190   3.8213
     3.8224   3.8227   3.8239   3.8259   5.1710   5.1738   5.1763   5.1786
     5.2759   5.2767   5.2780   5.2804   5.2813   5.2820   5.2830   5.2851
     6.6685   6.6698   6.6711   6.6721   8.1006   8.1021   8.1032   8.1044
     8.4114   8.4139   8.4157   8.4178   9.3905   9.3918   9.3951   9.3959
     9.3975   9.3991

          k =-0.5000 0.5000 0.1667 (  7948 PWs)   bands (ev):

    -2.0421  -2.0410  -2.0386  -2.0384  -0.5505  -0.5494  -0.5470  -0.5468
     0.9251   0.9262   0.9286   0.9288   2.3775   2.3789   2.3794   2.3809
     2.3816   2.3832   2.3841   2.3847   3.8174   3.8188   3.8193   3.8209
     3.8215   3.8231   3.8241   3.8246   5.1727   5.1739   5.1765   5.1767
     5.2766   5.2778   5.2785   5.2798   5.2807   5.2823   5.2830   5.2837
     6.6693   6.6699   6.6711   6.6712   8.1014   8.1020   8.1033   8.1035
     8.4128   8.4138   8.4160   8.4162   9.3911   9.3925   9.3930   9.3951
     9.3963   9.3977

     the Fermi energy is     7.8187 ev

!    total energy              =   -1264.05680215 Ry
     Harris-Foulkes estimate   =   -1264.05680204 Ry
     estimated scf accuracy    <       0.00000095 Ry

     total all-electron energy =    -15540.625824 Ry

     The total energy is the sum of the following terms:

     one-electron contribution =     101.27494721 Ry
     hartree contribution      =       0.20238032 Ry
     xc contribution           =     -82.91872462 Ry
     ewald contribution        =    -172.93188273 Ry
     one-center paw contrib.   =   -1109.68625297 Ry
     smearing contrib. (-TS)   =       0.00273063 Ry

     convergence has been achieved in   8 iterations

     Forces acting on atoms (cartesian axes, Ry/au):

     atom    1 type  1   force =     0.00000125   -0.00001334    0.00000567
     atom    2 type  1   force =    -0.00010884    0.00021928    0.00007497
     atom    3 type  1   force =     0.00022720   -0.00000927   -0.00053181
     atom    4 type  1   force =    -0.00004257   -0.00017180   -0.00033570
     atom    5 type  1   force =    -0.00044950   -0.00039183    0.00033912
     atom    6 type  1   force =    -0.00015905    0.00042889   -0.00000474
     atom    7 type  1   force =    -0.00016618   -0.00054234    0.00034861
     atom    8 type  1   force =     0.00004348   -0.00007322   -0.00026218
     atom    9 type  1   force =     0.00000236   -0.00006166    0.00011515
     atom   10 type  1   force =    -0.00019614   -0.00009389   -0.00067204
     atom   11 type  1   force =    -0.00023505   -0.00026557   -0.00039511
     atom   12 type  1   force =    -0.00010496    0.00003614   -0.00006681
     atom   13 type  1   force =    -0.00017532   -0.00034317   -0.00002746
     atom   14 type  1   force =    -0.00002478    0.00015220    0.00044077
     atom   15 type  1   force =    -0.00053354    0.00033339    0.00050881
     atom   16 type  1   force =     0.00063154    0.00051245    0.00012884
     atom   17 type  1   force =    -0.00042159    0.00004614    0.00009111
     atom   18 type  1   force =     0.00019909   -0.00006560    0.00044430
     atom   19 type  1   force =     0.00052011    0.00023268   -0.00008211
     atom   20 type  1   force =     0.00009172    0.00021440    0.00006269
     atom   21 type  1   force =     0.00021545   -0.00056482    0.00011418
     atom   22 type  1   force =    -0.00012271    0.00059617    0.00014016
     atom   23 type  1   force =     0.00013511   -0.00009906   -0.00020635
     atom   24 type  1   force =     0.00012371    0.00013840   -0.00008576
     atom   25 type  1   force =     0.00008873   -0.00019091    0.00033317
     atom   26 type  1   force =     0.00031249   -0.00021229   -0.00026029
     atom   27 type  1   force =    -0.00017256    0.00002471    0.00012522
     atom   28 type  1   force =    -0.00009463    0.00024379   -0.00007242
     atom   29 type  1   force =     0.00083977   -0.00035630   -0.00011258
     atom   30 type  1   force =    -0.00025911    0.00005084    0.00024259
     atom   31 type  1   force =    -0.00007607   -0.00006491   -0.00037285
     atom   32 type  1   force =    -0.00008940    0.00029050   -0.00002717

     Total force =     0.002768     Total SCF correction =     0.000512
     SCF correction compared to forces is large: reduce conv_thr to get better values


     Computing stress (Cartesian axis) and pressure

          total   stress  (Ry/bohr**3)                   (kbar)     P=   -1.56
  -0.00001060  -0.00000000  -0.00000001         -1.56     -0.00     -0.00
  -0.00000000  -0.00001060   0.00000000         -0.00     -1.56      0.00
  -0.00000001   0.00000000  -0.00001060         -0.00      0.00     -1.56


     Writing output data file fe_scf_fcc_2.save/
 
     init_run     :      1.47s CPU      1.56s WALL (       1 calls)
     electrons    :     17.20s CPU     17.65s WALL (       1 calls)
     forces       :      0.27s CPU      0.29s WALL (       1 calls)
     stress       :      0.85s CPU      0.85s WALL (       1 calls)

     Called by init_run:
     wfcinit      :      1.10s CPU      1.15s WALL (       1 calls)
     potinit      :      0.11s CPU      0.12s WALL (       1 calls)
     hinit0       :      0.23s CPU      0.26s WALL (       1 calls)

     Called by electrons:
     c_bands      :     14.29s CPU     14.65s WALL (       9 calls)
     sum_band     :      1.95s CPU      2.02s WALL (       9 calls)
     v_of_rho     :      0.06s CPU      0.07s WALL (       9 calls)
     newd         :      0.05s CPU      0.05s WALL (       9 calls)
     PAW_pot      :      0.87s CPU      0.88s WALL (       9 calls)
     mix_rho      :      0.02s CPU      0.02s WALL (       9 calls)

     Called by c_bands:
     init_us_2    :      0.30s CPU      0.31s WALL (     294 calls)
     cegterg      :     13.51s CPU     13.86s WALL (     126 calls)

     Called by sum_band:
     sum_band:bec :      0.02s CPU      0.02s WALL (     126 calls)
     addusdens    :      0.04s CPU      0.05s WALL (       9 calls)

     Called by *egterg:
     h_psi        :      9.35s CPU      9.66s WALL (     433 calls)
     s_psi        :      0.77s CPU      0.77s WALL (     433 calls)
     g_psi        :      0.03s CPU      0.03s WALL (     293 calls)
     cdiaghg      :      2.66s CPU      2.67s WALL (     405 calls)

     Called by h_psi:
     h_psi:pot    :      9.30s CPU      9.61s WALL (     433 calls)
     h_psi:calbec :      0.84s CPU      0.92s WALL (     433 calls)
     vloc_psi     :      7.67s CPU      7.89s WALL (     433 calls)
     add_vuspsi   :      0.79s CPU      0.79s WALL (     433 calls)

     General routines
     calbec       :      1.33s CPU      1.43s WALL (     629 calls)
     fft          :      0.28s CPU      0.32s WALL (     142 calls)
     ffts         :      0.01s CPU      0.01s WALL (      18 calls)
     fftw         :      8.43s CPU      8.69s WALL (   48976 calls)
     interpolate  :      0.01s CPU      0.01s WALL (       9 calls)
 
     Parallel routines
     fft_scatt_xy :      0.80s CPU      0.82s WALL (   49136 calls)
     fft_scatt_yz :      4.64s CPU      4.78s WALL (   49136 calls)
 
     PWSCF        :    20.61s CPU        21.35s WALL

 
   This run was terminated on:   1: 4:18  12Mar2020            

=------------------------------------------------------------------------------=
   JOB DONE.
=------------------------------------------------------------------------------=
