
     Program PWSCF v.6.3 starts on 12Mar2020 at  1: 5:20 

     This program is part of the open-source Quantum ESPRESSO suite
     for quantum simulation of materials; please cite
         "P. Giannozzi et al., J. Phys.:Condens. Matter 21 395502 (2009);
         "P. Giannozzi et al., J. Phys.:Condens. Matter 29 465901 (2017);
          URL http://www.quantum-espresso.org", 
     in publications or presentations arising from this work. More details at
     http://www.quantum-espresso.org/quote

     Parallel version (MPI & OpenMP), running on      20 processor cores
     Number of MPI processes:                20
     Threads/MPI process:                     1

     MPI processes distributed on     1 nodes
     R & G space division:  proc/nbgrp/npool/nimage =      20
     Reading input from wd/kpoints/file_000133.in
Warning: card &IONS ignored
Warning: card ION_DYNAMICS = 'BFGS', ignored
Warning: card / ignored
Warning: card &CELL ignored
Warning: card CELL_DYNAMICS = 'BFGS', ignored
Warning: card CELL_FACTOR = 2.0, ignored
Warning: card PRESS = 0.0, ignored
Warning: card / ignored

     Current dimensions of program PWSCF are:
     Max number of different atomic species (ntypx) = 10
     Max number of k-points (npk) =  40000
     Max angular momentum in pseudopotentials (lmaxx) =  3
     Message from routine read_upf::
     Pseudo file /rds/homes/b/bxp912/pp/Al.pbe-nl-kjpaw_psl.1.0.0.UPF has been successfully fixed on the fly.
To avoid this message in the future you can permanently fix 
 your pseudo files following instructions given in: 
https://gitlab.com/QEF/q-e/blob/master/upftools/how_to_fix_upf.md
               file Al.pbe-nl-kjpaw_psl.1.0.0.UPF: wavefunction(s)  3S 3P renormalized

     Subspace diagonalization in iterative solution of the eigenvalue problem:
     a serial algorithm will be used

 
     Parallelization info
     --------------------
     sticks:   dense  smooth     PW     G-vecs:    dense   smooth      PW
     Min          96      96     27                 3225     3198     487
     Max          98      97     28                 3241     3201     490
     Sum        1941    1933    553                64589    63989    9771
 


     bravais-lattice index     =            0
     lattice parameter (alat)  =      15.2712  a.u.
     unit-cell volume          =    3561.3897 (a.u.)^3
     number of atoms/cell      =           32
     number of atomic types    =            1
     number of electrons       =        96.00
     number of Kohn-Sham states=           58
     kinetic-energy cutoff     =      26.0000  Ry
     charge density cutoff     =     105.0000  Ry
     convergence threshold     =      1.0E-06
     mixing beta               =       0.1000
     number of iterations used =           10  TF        mixing
     Exchange-correlation      = SLA PW PBX PBC ( 1  4  3  4 0 0)

     celldm(1)=  15.271200  celldm(2)=   0.000000  celldm(3)=   0.000000
     celldm(4)=   0.000000  celldm(5)=   0.000000  celldm(6)=   0.000000

     crystal axes: (cart. coord. in units of alat)
               a(1) = (   1.000000   0.000000   0.000000 )  
               a(2) = (   0.000000   1.000000   0.000000 )  
               a(3) = (   0.000000   0.000000   1.000000 )  

     reciprocal axes: (cart. coord. in units 2 pi/alat)
               b(1) = (  1.000000  0.000000  0.000000 )  
               b(2) = (  0.000000  1.000000  0.000000 )  
               b(3) = (  0.000000  0.000000  1.000000 )  


     PseudoPot. # 1 for Al read from file:
     /rds/homes/b/bxp912/pp/Al.pbe-nl-kjpaw_psl.1.0.0.UPF
     MD5 check sum: 339dbea23cf3ab9a065ad45c0f9085d7
     Pseudo is Projector augmented-wave + core cor, Zval =  3.0
     Generated using "atomic" code by A. Dal Corso v.5.1
     Shape of augmentation charge: PSQ
     Using radial grid of 1135 points,  4 beta functions with: 
                l(1) =   0
                l(2) =   0
                l(3) =   1
                l(4) =   1
     Q(r) pseudized with 0 coefficients 


     atomic species   valence    mass     pseudopotential
        Al             3.00    26.98200     Al( 1.00)

     No symmetry found



   Cartesian axes

     site n.     atom                  positions (alat units)
         1           Al  tau(   1) = (  -0.0000327   0.0000095   0.0000680  )
         2           Al  tau(   2) = (   0.2500796   0.2498100   0.0000703  )
         3           Al  tau(   3) = (   0.2499071   0.0000305   0.2502955  )
         4           Al  tau(   4) = (  -0.0000200   0.2502187   0.2501837  )
         5           Al  tau(   5) = (   0.0002558   0.0002521   0.4998810  )
         6           Al  tau(   6) = (   0.2501194   0.2498326   0.5000036  )
         7           Al  tau(   7) = (   0.2500278   0.0001539   0.7498880  )
         8           Al  tau(   8) = (   0.0000549   0.2501136   0.7502101  )
         9           Al  tau(   9) = (   0.0002375   0.5001078  -0.0000154  )
        10           Al  tau(  10) = (   0.2501396   0.7501762   0.0004054  )
        11           Al  tau(  11) = (   0.2501891   0.5001088   0.2502510  )
        12           Al  tau(  12) = (   0.0000383   0.7500455   0.2500253  )
        13           Al  tau(  13) = (   0.0001102   0.5001562   0.5000990  )
        14           Al  tau(  14) = (   0.2499640   0.7500632   0.4998706  )
        15           Al  tau(  15) = (   0.2503366   0.4997894   0.7496960  )
        16           Al  tau(  16) = (  -0.0003280   0.7497055   0.7499931  )
        17           Al  tau(  17) = (   0.5002037  -0.0001004  -0.0000387  )
        18           Al  tau(  18) = (   0.7499123   0.2500941  -0.0002332  )
        19           Al  tau(  19) = (   0.7496354  -0.0000959   0.2500771  )
        20           Al  tau(  20) = (   0.4999751   0.2499614   0.2498317  )
        21           Al  tau(  21) = (   0.4999211   0.0002929   0.4999726  )
        22           Al  tau(  22) = (   0.7500684   0.2496958   0.4999523  )
        23           Al  tau(  23) = (   0.7500357  -0.0000687   0.7500257  )
        24           Al  tau(  24) = (   0.5000114   0.2498864   0.7499948  )
        25           Al  tau(  25) = (   0.4998526   0.5001156  -0.0002192  )
        26           Al  tau(  26) = (   0.7497723   0.7500978   0.0002736  )
        27           Al  tau(  27) = (   0.7501007   0.4998018   0.2499462  )
        28           Al  tau(  28) = (   0.5000878   0.7497908   0.2502093  )
        29           Al  tau(  29) = (   0.4996761   0.5001027   0.5000404  )
        30           Al  tau(  30) = (   0.7501658   0.7499872   0.4998547  )
        31           Al  tau(  31) = (   0.7499472   0.5000095   0.7501393  )
        32           Al  tau(  32) = (   0.5000142   0.7499486   0.7499177  )

     number of k points=    14  Marzari-Vanderbilt smearing, width (Ry)=  0.0020
                       cart. coord. in units 2pi/alat
        k(    1) = (   0.1666667   0.1666667   0.1666667), wk =   0.1481481
        k(    2) = (   0.1666667   0.1666667  -0.5000000), wk =   0.1481481
        k(    3) = (   0.1666667  -0.5000000  -0.5000000), wk =   0.1481481
        k(    4) = (  -0.5000000  -0.5000000  -0.5000000), wk =   0.0740741
        k(    5) = (  -0.1666667  -0.1666667   0.1666667), wk =   0.1481481
        k(    6) = (  -0.1666667   0.1666667  -0.1666667), wk =   0.1481481
        k(    7) = (   0.1666667  -0.1666667  -0.1666667), wk =   0.1481481
        k(    8) = (  -0.1666667   0.1666667   0.5000000), wk =   0.1481481
        k(    9) = (  -0.5000000  -0.1666667   0.1666667), wk =   0.1481481
        k(   10) = (   0.5000000  -0.1666667  -0.1666667), wk =   0.1481481
        k(   11) = (  -0.1666667  -0.5000000   0.1666667), wk =   0.1481481
        k(   12) = (  -0.1666667   0.5000000  -0.1666667), wk =   0.1481481
        k(   13) = (  -0.5000000   0.1666667   0.5000000), wk =   0.1481481
        k(   14) = (  -0.5000000   0.5000000   0.1666667), wk =   0.1481481

     Dense  grid:    64589 G-vectors     FFT dimensions: (  50,  50,  50)

     Smooth grid:    63989 G-vectors     FFT dimensions: (  50,  50,  50)

     Estimated max dynamical RAM per process >      16.38 MB

     Estimated total dynamical RAM >     327.61 MB

     Initial potential from superposition of free atoms

     starting charge   95.92671, renormalised to   96.00000
     Starting wfcs are  128 randomized atomic wfcs
     Checking if some PAW data can be deallocated... 

     total cpu time spent up to now is        2.3 secs

     Self-consistent Calculation

     iteration #  1     ecut=    26.00 Ry     beta= 0.10
     Davidson diagonalization with overlap
     ethr =  1.00E-02,  avg # of iterations =  3.0

     Threshold (ethr) on eigenvalues was too large:
     Diagonalizing with lowered threshold

     Davidson diagonalization with overlap
     ethr =  1.93E-04,  avg # of iterations =  3.6

     total cpu time spent up to now is        6.9 secs

     total energy              =   -1264.09921356 Ry
     Harris-Foulkes estimate   =   -1264.10537571 Ry
     estimated scf accuracy    <       0.18087008 Ry

     iteration #  2     ecut=    26.00 Ry     beta= 0.10
     Davidson diagonalization with overlap
     ethr =  1.88E-04,  avg # of iterations =  1.0

     total cpu time spent up to now is        8.3 secs

     total energy              =   -1264.05228720 Ry
     Harris-Foulkes estimate   =   -1264.10002437 Ry
     estimated scf accuracy    <       0.15697790 Ry

     iteration #  3     ecut=    26.00 Ry     beta= 0.10
     Davidson diagonalization with overlap
     ethr =  1.64E-04,  avg # of iterations =  1.0

     total cpu time spent up to now is        9.8 secs

     total energy              =   -1264.05514226 Ry
     Harris-Foulkes estimate   =   -1264.05528327 Ry
     estimated scf accuracy    <       0.00067195 Ry

     iteration #  4     ecut=    26.00 Ry     beta= 0.10
     Davidson diagonalization with overlap
     ethr =  7.00E-07,  avg # of iterations =  4.9

     total cpu time spent up to now is       12.9 secs

     total energy              =   -1264.05576806 Ry
     Harris-Foulkes estimate   =   -1264.05592544 Ry
     estimated scf accuracy    <       0.00042012 Ry

     iteration #  5     ecut=    26.00 Ry     beta= 0.10
     Davidson diagonalization with overlap
     ethr =  4.38E-07,  avg # of iterations =  1.9

     total cpu time spent up to now is       14.5 secs

     total energy              =   -1264.05556161 Ry
     Harris-Foulkes estimate   =   -1264.05577822 Ry
     estimated scf accuracy    <       0.00025817 Ry

     iteration #  6     ecut=    26.00 Ry     beta= 0.10
     Davidson diagonalization with overlap
     ethr =  2.69E-07,  avg # of iterations =  2.0

     total cpu time spent up to now is       16.5 secs

     total energy              =   -1264.05562102 Ry
     Harris-Foulkes estimate   =   -1264.05562149 Ry
     estimated scf accuracy    <       0.00002279 Ry

     iteration #  7     ecut=    26.00 Ry     beta= 0.10
     Davidson diagonalization with overlap
     ethr =  2.37E-08,  avg # of iterations =  1.8

     total cpu time spent up to now is       18.1 secs

     total energy              =   -1264.05562899 Ry
     Harris-Foulkes estimate   =   -1264.05562197 Ry
     estimated scf accuracy    <       0.00002431 Ry

     iteration #  8     ecut=    26.00 Ry     beta= 0.10
     Davidson diagonalization with overlap
     ethr =  2.37E-08,  avg # of iterations =  1.0

     total cpu time spent up to now is       19.5 secs

     total energy              =   -1264.05563295 Ry
     Harris-Foulkes estimate   =   -1264.05562928 Ry
     estimated scf accuracy    <       0.00003167 Ry

     iteration #  9     ecut=    26.00 Ry     beta= 0.10
     Davidson diagonalization with overlap
     ethr =  2.37E-08,  avg # of iterations =  2.7

     total cpu time spent up to now is       21.4 secs

     total energy              =   -1264.05562964 Ry
     Harris-Foulkes estimate   =   -1264.05564239 Ry
     estimated scf accuracy    <       0.00005378 Ry

     iteration # 10     ecut=    26.00 Ry     beta= 0.10
     Davidson diagonalization with overlap
     ethr =  2.37E-08,  avg # of iterations =  1.0

     total cpu time spent up to now is       22.9 secs

     total energy              =   -1264.05562417 Ry
     Harris-Foulkes estimate   =   -1264.05563016 Ry
     estimated scf accuracy    <       0.00003980 Ry

     iteration # 11     ecut=    26.00 Ry     beta= 0.10
     Davidson diagonalization with overlap
     ethr =  2.37E-08,  avg # of iterations =  1.7

     total cpu time spent up to now is       24.4 secs

     total energy              =   -1264.05562661 Ry
     Harris-Foulkes estimate   =   -1264.05562666 Ry
     estimated scf accuracy    <       0.00000125 Ry

     iteration # 12     ecut=    26.00 Ry     beta= 0.10
     Davidson diagonalization with overlap
     ethr =  1.31E-09,  avg # of iterations =  4.1

     total cpu time spent up to now is       27.0 secs

     End of self-consistent calculation

          k = 0.1667 0.1667 0.1667 (  8003 PWs)   bands (ev):

    -3.0431  -1.5438  -1.5413  -1.5383  -0.0589  -0.0580  -0.0558  -0.0547
    -0.0533  -0.0498   1.4117   1.4129   1.4151   1.4163   1.4174   1.4180
     1.4202   2.8661   2.8679   2.8691   2.8698   2.8718   2.8744   4.2339
     4.2345   4.2351   4.3314   4.3320   4.3327   5.6428   5.6431   5.6461
     5.6468   5.6482   5.6494   5.7598   7.0609   7.0613   7.0630   7.0646
     7.0656   7.0664   7.0747   7.0772   7.0804   7.4082   7.4089   7.4095
     8.4791   8.4797   8.4814   8.4827   8.4840   8.4845   8.8190   8.8205
     8.8214   8.8236

          k = 0.1667 0.1667-0.5000 (  7946 PWs)   bands (ev):

    -2.5414  -2.5400  -1.0453  -1.0446  -1.0438  -1.0422   0.4336   0.4351
     0.4365   0.4377   0.4392   0.4395   1.8955   1.8966   1.9020   1.9025
     1.9035   1.9041   3.3447   3.3457   3.3460   3.3463   3.3490   3.3502
     4.7066   4.7070   4.7080   4.7087   4.7730   4.7741   4.7744   4.7754
     4.8036   4.8046   6.1408   6.1414   6.1423   6.1440   6.2248   6.2252
     6.2260   6.2268   7.5417   7.5424   7.5433   7.5448   7.6425   7.6437
     7.8580   7.8585   7.8593   7.8603   8.9807   8.9809   8.9821   8.9827
     9.3411   9.3429

          k = 0.1667-0.5000-0.5000 (  7948 PWs)   bands (ev):

    -2.0420  -2.0411  -2.0390  -2.0379  -0.5505  -0.5495  -0.5475  -0.5464
     0.9251   0.9260   0.9281   0.9293   2.3776   2.3785   2.3796   2.3804
     2.3814   2.3834   2.3843   2.3848   3.8175   3.8185   3.8196   3.8204
     3.8212   3.8234   3.8242   3.8247   5.1728   5.1738   5.1760   5.1772
     5.2766   5.2776   5.2786   5.2793   5.2805   5.2824   5.2834   5.2839
     6.6691   6.6697   6.6709   6.6716   8.1014   8.1019   8.1031   8.1038
     8.4129   8.4138   8.4155   8.4165   9.3911   9.3918   9.3937   9.3945
     9.3972   9.3984

          k =-0.5000-0.5000-0.5000 (  8024 PWs)   bands (ev):

    -1.5451  -1.5444  -1.5429  -1.5420  -1.5405  -1.5393  -1.5381  -1.5363
     2.8572   2.8576   2.8587   2.8593   2.8603   2.8610   2.8616   2.8622
     2.8628   2.8633   2.8637   2.8639   2.8642   2.8648   2.8655   2.8657
     2.8663   2.8673   2.8679   2.8682   2.8688   2.8705   2.8718   2.8737
     7.1503   7.1516   7.1521   7.1525   7.1536   7.1543   7.1547   7.1548
     7.1552   7.1556   7.1570   7.1574   7.1579   7.1584   7.1586   7.1590
     7.1596   7.1603   7.1608   7.1610   7.1621   7.1626   7.1641   7.1643
    11.3563  11.3582

          k =-0.1667-0.1667 0.1667 (  8003 PWs)   bands (ev):

    -3.0431  -1.5432  -1.5413  -1.5388  -0.0586  -0.0573  -0.0560  -0.0545
    -0.0522  -0.0519   1.4112   1.4144   1.4148   1.4157   1.4171   1.4180
     1.4203   2.8670   2.8680   2.8687   2.8699   2.8715   2.8741   4.2342
     4.2345   4.2349   4.3316   4.3320   4.3324   5.6419   5.6449   5.6454
     5.6465   5.6482   5.6496   5.7598   7.0610   7.0624   7.0632   7.0642
     7.0651   7.0660   7.0752   7.0773   7.0798   7.4085   7.4089   7.4093
     8.4794   8.4805   8.4816   8.4823   8.4830   8.4844   8.8192   8.8205
     8.8220   8.8231

          k =-0.1667 0.1667-0.1667 (  8003 PWs)   bands (ev):

    -3.0431  -1.5437  -1.5411  -1.5385  -0.0590  -0.0577  -0.0554  -0.0543
    -0.0528  -0.0513   1.4122   1.4129   1.4144   1.4156   1.4176   1.4188
     1.4201   2.8673   2.8678   2.8684   2.8697   2.8719   2.8740   4.2339
     4.2345   4.2352   4.3313   4.3320   4.3327   5.6430   5.6436   5.6448
     5.6461   5.6487   5.6503   5.7598   7.0611   7.0619   7.0627   7.0645
     7.0655   7.0665   7.0748   7.0773   7.0800   7.4082   7.4089   7.4096
     8.4793   8.4801   8.4809   8.4829   8.4836   8.4845   8.8194   8.8203
     8.8216   8.8232

          k = 0.1667-0.1667-0.1667 (  8003 PWs)   bands (ev):

    -3.0431  -1.5434  -1.5418  -1.5382  -0.0591  -0.0573  -0.0559  -0.0553
    -0.0539  -0.0490   1.4123   1.4129   1.4139   1.4159   1.4170   1.4176
     1.4219   2.8662   2.8675   2.8685   2.8704   2.8713   2.8752   4.2338
     4.2345   4.2352   4.3312   4.3320   4.3328   5.6427   5.6438   5.6452
     5.6465   5.6479   5.6504   5.7598   7.0607   7.0621   7.0626   7.0643
     7.0649   7.0667   7.0755   7.0770   7.0805   7.4081   7.4089   7.4097
     8.4788   8.4805   8.4810   8.4829   8.4834   8.4847   8.8194   8.8198
     8.8219   8.8231

          k =-0.1667 0.1667 0.5000 (  7946 PWs)   bands (ev):

    -2.5414  -2.5400  -1.0458  -1.0443  -1.0439  -1.0419   0.4339   0.4348
     0.4358   0.4374   0.4393   0.4403   1.8953   1.8965   1.9018   1.9028
     1.9033   1.9044   3.3443   3.3454   3.3463   3.3474   3.3486   3.3499
     4.7062   4.7073   4.7078   4.7089   4.7727   4.7737   4.7747   4.7757
     4.8036   4.8047   6.1401   6.1418   6.1422   6.1443   6.2244   6.2254
     6.2261   6.2269   7.5416   7.5427   7.5432   7.5447   7.6425   7.6437
     7.8576   7.8589   7.8592   7.8605   8.9804   8.9811   8.9821   8.9827
     9.3411   9.3425

          k =-0.5000-0.1667 0.1667 (  7946 PWs)   bands (ev):

    -2.5415  -2.5399  -1.0465  -1.0440  -1.0435  -1.0419   0.4340   0.4358
     0.4361   0.4378   0.4384   0.4396   1.8955   1.8964   1.9021   1.9024
     1.9034   1.9045   3.3442   3.3453   3.3466   3.3476   3.3484   3.3498
     4.7066   4.7068   4.7079   4.7090   4.7725   4.7736   4.7749   4.7760
     4.8034   4.8047   6.1395   6.1421   6.1426   6.1443   6.2246   6.2253
     6.2256   6.2272   7.5411   7.5428   7.5436   7.5446   7.6424   7.6437
     7.8580   7.8584   7.8591   7.8607   8.9801   8.9813   8.9815   8.9833
     9.3405   9.3432

          k = 0.5000-0.1667-0.1667 (  7946 PWs)   bands (ev):

    -2.5415  -2.5399  -1.0467  -1.0446  -1.0429  -1.0417   0.4328   0.4347
     0.4365   0.4372   0.4391   0.4414   1.8956   1.8962   1.9016   1.9028
     1.9037   1.9043   3.3436   3.3448   3.3467   3.3474   3.3490   3.3505
     4.7062   4.7072   4.7080   4.7089   4.7718   4.7731   4.7754   4.7764
     4.8036   4.8048   6.1392   6.1415   6.1432   6.1445   6.2244   6.2254
     6.2261   6.2269   7.5414   7.5424   7.5431   7.5453   7.6425   7.6437
     7.8575   7.8588   7.8593   7.8605   8.9803   8.9811   8.9821   8.9827
     9.3406   9.3427

          k =-0.1667-0.5000 0.1667 (  7946 PWs)   bands (ev):

    -2.5410  -2.5405  -1.0462  -1.0456  -1.0428  -1.0413   0.4338   0.4346
     0.4365   0.4368   0.4391   0.4410   1.8956   1.8962   1.9026   1.9028
     1.9033   1.9036   3.3440   3.3442   3.3474   3.3479   3.3489   3.3496
     4.7073   4.7073   4.7078   4.7079   4.7723   4.7725   4.7758   4.7763
     4.8040   4.8044   6.1399   6.1405   6.1433   6.1448   6.2254   6.2255
     6.2259   6.2260   7.5414   7.5426   7.5439   7.5443   7.6429   7.6433
     7.8587   7.8588   7.8593   7.8594   8.9813   8.9813   8.9818   8.9819
     9.3408   9.3429

          k =-0.1667 0.5000-0.1667 (  7946 PWs)   bands (ev):

    -2.5410  -2.5405  -1.0463  -1.0459  -1.0423  -1.0414   0.4339   0.4346
     0.4368   0.4377   0.4386   0.4401   1.8956   1.8961   1.9027   1.9029
     1.9031   1.9038   3.3436   3.3440   3.3474   3.3479   3.3494   3.3497
     4.7073   4.7073   4.7073   4.7084   4.7719   4.7722   4.7763   4.7766
     4.8039   4.8042   6.1397   6.1402   6.1438   6.1448   6.2251   6.2254
     6.2256   6.2266   7.5417   7.5422   7.5437   7.5446   7.6429   7.6433
     7.8586   7.8588   7.8588   7.8600   8.9810   8.9812   8.9817   8.9825
     9.3412   9.3416

          k =-0.5000 0.1667 0.5000 (  7948 PWs)   bands (ev):

    -2.0430  -2.0413  -2.0386  -2.0373  -0.5514  -0.5498  -0.5470  -0.5457
     0.9242   0.9258   0.9286   0.9299   2.3773   2.3781   2.3790   2.3810
     2.3822   2.3828   2.3840   2.3856   3.8173   3.8179   3.8190   3.8210
     3.8222   3.8228   3.8240   3.8255   5.1718   5.1735   5.1765   5.1779
     5.2762   5.2771   5.2780   5.2800   5.2813   5.2820   5.2830   5.2847
     6.6686   6.6697   6.6711   6.6720   8.1007   8.1020   8.1032   8.1042
     8.4121   8.4136   8.4158   8.4171   9.3908   9.3921   9.3946   9.3957
     9.3977   9.3989

          k =-0.5000 0.5000 0.1667 (  7948 PWs)   bands (ev):

    -2.0416  -2.0407  -2.0390  -2.0388  -0.5501  -0.5491  -0.5474  -0.5472
     0.9255   0.9265   0.9282   0.9284   2.3777   2.3790   2.3794   2.3810
     2.3816   2.3832   2.3838   2.3844   3.8176   3.8189   3.8193   3.8209
     3.8215   3.8231   3.8239   3.8244   5.1732   5.1742   5.1760   5.1763
     5.2768   5.2780   5.2784   5.2799   5.2807   5.2823   5.2827   5.2834
     6.6693   6.6699   6.6710   6.6711   8.1015   8.1021   8.1033   8.1034
     8.4132   8.4141   8.4156   8.4158   9.3913   9.3924   9.3930   9.3952
     9.3962   9.3977

     the Fermi energy is     7.8562 ev

!    total energy              =   -1264.05562674 Ry
     Harris-Foulkes estimate   =   -1264.05562702 Ry
     estimated scf accuracy    <       0.00000038 Ry

     total all-electron energy =    -15540.624649 Ry

     The total energy is the sum of the following terms:

     one-electron contribution =     101.27987150 Ry
     hartree contribution      =       0.20237426 Ry
     xc contribution           =     -82.91867293 Ry
     ewald contribution        =    -172.93188273 Ry
     one-center paw contrib.   =   -1109.68612645 Ry
     smearing contrib. (-TS)   =      -0.00119039 Ry

     convergence has been achieved in  12 iterations

     Forces acting on atoms (cartesian axes, Ry/au):

     atom    1 type  1   force =     0.00007222    0.00008815    0.00007101
     atom    2 type  1   force =    -0.00000558    0.00018629    0.00016157
     atom    3 type  1   force =     0.00030686   -0.00004514   -0.00045599
     atom    4 type  1   force =    -0.00002256   -0.00019184   -0.00027435
     atom    5 type  1   force =    -0.00037615   -0.00029946    0.00025460
     atom    6 type  1   force =    -0.00004598    0.00040493   -0.00004351
     atom    7 type  1   force =    -0.00006633   -0.00056479    0.00028157
     atom    8 type  1   force =     0.00008069   -0.00011439   -0.00031684
     atom    9 type  1   force =     0.00006848   -0.00004388    0.00017823
     atom   10 type  1   force =    -0.00008784   -0.00003929   -0.00055851
     atom   11 type  1   force =    -0.00014105   -0.00033583   -0.00032414
     atom   12 type  1   force =    -0.00005803    0.00007666    0.00001803
     atom   13 type  1   force =    -0.00009816   -0.00030218   -0.00011492
     atom   14 type  1   force =     0.00006761    0.00019928    0.00038932
     atom   15 type  1   force =    -0.00041614    0.00023184    0.00043975
     atom   16 type  1   force =     0.00064759    0.00054589    0.00007297
     atom   17 type  1   force =    -0.00047120    0.00011248    0.00013455
     atom   18 type  1   force =     0.00011240   -0.00008706    0.00052820
     atom   19 type  1   force =     0.00041147    0.00021338   -0.00002327
     atom   20 type  1   force =     0.00002829    0.00016984    0.00011897
     atom   21 type  1   force =     0.00017204   -0.00046967    0.00002079
     atom   22 type  1   force =    -0.00022151    0.00055879    0.00006243
     atom   23 type  1   force =     0.00002170   -0.00014630   -0.00028166
     atom   24 type  1   force =     0.00005578    0.00009248   -0.00017227
     atom   25 type  1   force =     0.00007656   -0.00016015    0.00036908
     atom   26 type  1   force =     0.00020201   -0.00018190   -0.00017605
     atom   27 type  1   force =    -0.00026159   -0.00008672    0.00017121
     atom   28 type  1   force =    -0.00018255    0.00027456   -0.00001689
     atom   29 type  1   force =     0.00080514   -0.00033449   -0.00020368
     atom   30 type  1   force =    -0.00035319    0.00008828    0.00021346
     atom   31 type  1   force =    -0.00017244   -0.00014987   -0.00043581
     atom   32 type  1   force =    -0.00014852    0.00031011   -0.00008784

     Total force =     0.002636     Total SCF correction =     0.000660
     SCF correction compared to forces is large: reduce conv_thr to get better values


     Computing stress (Cartesian axis) and pressure

          total   stress  (Ry/bohr**3)                   (kbar)     P=   -1.46
  -0.00000995  -0.00000001   0.00000000         -1.46     -0.00      0.00
  -0.00000001  -0.00000989   0.00000000         -0.00     -1.45      0.00
   0.00000000   0.00000000  -0.00001003          0.00      0.00     -1.48


     Writing output data file fe_scf_fcc_2.save/
 
     init_run     :      1.42s CPU      1.53s WALL (       1 calls)
     electrons    :     24.09s CPU     24.64s WALL (       1 calls)
     forces       :      0.27s CPU      0.29s WALL (       1 calls)
     stress       :      0.84s CPU      0.84s WALL (       1 calls)

     Called by init_run:
     wfcinit      :      1.11s CPU      1.17s WALL (       1 calls)
     potinit      :      0.12s CPU      0.12s WALL (       1 calls)
     hinit0       :      0.17s CPU      0.21s WALL (       1 calls)

     Called by electrons:
     c_bands      :     19.94s CPU     20.38s WALL (      13 calls)
     sum_band     :      2.76s CPU      2.86s WALL (      13 calls)
     v_of_rho     :      0.10s CPU      0.10s WALL (      13 calls)
     newd         :      0.07s CPU      0.08s WALL (      13 calls)
     PAW_pot      :      1.27s CPU      1.27s WALL (      13 calls)
     mix_rho      :      0.04s CPU      0.04s WALL (      13 calls)

     Called by c_bands:
     init_us_2    :      0.35s CPU      0.36s WALL (     406 calls)
     cegterg      :     18.82s CPU     19.25s WALL (     182 calls)

     Called by sum_band:
     sum_band:bec :      0.03s CPU      0.03s WALL (     182 calls)
     addusdens    :      0.05s CPU      0.05s WALL (      13 calls)

     Called by *egterg:
     h_psi        :     12.51s CPU     12.90s WALL (     611 calls)
     s_psi        :      0.89s CPU      0.90s WALL (     611 calls)
     g_psi        :      0.03s CPU      0.03s WALL (     415 calls)
     cdiaghg      :      3.88s CPU      3.89s WALL (     583 calls)

     Called by h_psi:
     h_psi:pot    :     12.47s CPU     12.86s WALL (     611 calls)
     h_psi:calbec :      1.16s CPU      1.23s WALL (     611 calls)
     vloc_psi     :     10.39s CPU     10.69s WALL (     611 calls)
     add_vuspsi   :      0.92s CPU      0.93s WALL (     611 calls)

     General routines
     calbec       :      1.96s CPU      2.08s WALL (     863 calls)
     fft          :      0.28s CPU      0.32s WALL (     194 calls)
     ffts         :      0.01s CPU      0.01s WALL (      26 calls)
     fftw         :     11.58s CPU     11.92s WALL (   66538 calls)
     interpolate  :      0.01s CPU      0.02s WALL (      13 calls)
 
     Parallel routines
     fft_scatt_xy :      1.05s CPU      1.08s WALL (   66758 calls)
     fft_scatt_yz :      6.18s CPU      6.38s WALL (   66758 calls)
 
     PWSCF        :    27.57s CPU        28.43s WALL

 
   This run was terminated on:   1: 5:49  12Mar2020            

=------------------------------------------------------------------------------=
   JOB DONE.
=------------------------------------------------------------------------------=
