
     Program PWSCF v.6.3 starts on 12Mar2020 at  1:14:43 

     This program is part of the open-source Quantum ESPRESSO suite
     for quantum simulation of materials; please cite
         "P. Giannozzi et al., J. Phys.:Condens. Matter 21 395502 (2009);
         "P. Giannozzi et al., J. Phys.:Condens. Matter 29 465901 (2017);
          URL http://www.quantum-espresso.org", 
     in publications or presentations arising from this work. More details at
     http://www.quantum-espresso.org/quote

     Parallel version (MPI & OpenMP), running on      20 processor cores
     Number of MPI processes:                20
     Threads/MPI process:                     1

     MPI processes distributed on     1 nodes
     R & G space division:  proc/nbgrp/npool/nimage =      20
     Reading input from wd/kpoints/file_000146.in
Warning: card &IONS ignored
Warning: card ION_DYNAMICS = 'BFGS', ignored
Warning: card / ignored
Warning: card &CELL ignored
Warning: card CELL_DYNAMICS = 'BFGS', ignored
Warning: card CELL_FACTOR = 2.0, ignored
Warning: card PRESS = 0.0, ignored
Warning: card / ignored

     Current dimensions of program PWSCF are:
     Max number of different atomic species (ntypx) = 10
     Max number of k-points (npk) =  40000
     Max angular momentum in pseudopotentials (lmaxx) =  3
     Message from routine read_upf::
     Pseudo file /rds/homes/b/bxp912/pp/Al.pbe-nl-kjpaw_psl.1.0.0.UPF has been successfully fixed on the fly.
To avoid this message in the future you can permanently fix 
 your pseudo files following instructions given in: 
https://gitlab.com/QEF/q-e/blob/master/upftools/how_to_fix_upf.md
               file Al.pbe-nl-kjpaw_psl.1.0.0.UPF: wavefunction(s)  3S 3P renormalized

     Subspace diagonalization in iterative solution of the eigenvalue problem:
     a serial algorithm will be used

 
     Parallelization info
     --------------------
     sticks:   dense  smooth     PW     G-vecs:    dense   smooth      PW
     Min          96      96     27                 3225     3198     487
     Max          98      97     28                 3241     3201     490
     Sum        1941    1933    553                64589    63989    9771
 


     bravais-lattice index     =            0
     lattice parameter (alat)  =      15.2712  a.u.
     unit-cell volume          =    3561.3897 (a.u.)^3
     number of atoms/cell      =           32
     number of atomic types    =            1
     number of electrons       =        96.00
     number of Kohn-Sham states=           58
     kinetic-energy cutoff     =      26.0000  Ry
     charge density cutoff     =     105.0000  Ry
     convergence threshold     =      1.0E-06
     mixing beta               =       0.1000
     number of iterations used =           10  TF        mixing
     Exchange-correlation      = SLA PW PBX PBC ( 1  4  3  4 0 0)

     celldm(1)=  15.271200  celldm(2)=   0.000000  celldm(3)=   0.000000
     celldm(4)=   0.000000  celldm(5)=   0.000000  celldm(6)=   0.000000

     crystal axes: (cart. coord. in units of alat)
               a(1) = (   1.000000   0.000000   0.000000 )  
               a(2) = (   0.000000   1.000000   0.000000 )  
               a(3) = (   0.000000   0.000000   1.000000 )  

     reciprocal axes: (cart. coord. in units 2 pi/alat)
               b(1) = (  1.000000  0.000000  0.000000 )  
               b(2) = (  0.000000  1.000000  0.000000 )  
               b(3) = (  0.000000  0.000000  1.000000 )  


     PseudoPot. # 1 for Al read from file:
     /rds/homes/b/bxp912/pp/Al.pbe-nl-kjpaw_psl.1.0.0.UPF
     MD5 check sum: 339dbea23cf3ab9a065ad45c0f9085d7
     Pseudo is Projector augmented-wave + core cor, Zval =  3.0
     Generated using "atomic" code by A. Dal Corso v.5.1
     Shape of augmentation charge: PSQ
     Using radial grid of 1135 points,  4 beta functions with: 
                l(1) =   0
                l(2) =   0
                l(3) =   1
                l(4) =   1
     Q(r) pseudized with 0 coefficients 


     atomic species   valence    mass     pseudopotential
        Al             3.00    26.98200     Al( 1.00)

     No symmetry found



   Cartesian axes

     site n.     atom                  positions (alat units)
         1           Al  tau(   1) = (  -0.0000327   0.0000095   0.0000680  )
         2           Al  tau(   2) = (   0.2500796   0.2498100   0.0000703  )
         3           Al  tau(   3) = (   0.2499071   0.0000305   0.2502955  )
         4           Al  tau(   4) = (  -0.0000200   0.2502187   0.2501837  )
         5           Al  tau(   5) = (   0.0002558   0.0002521   0.4998810  )
         6           Al  tau(   6) = (   0.2501194   0.2498326   0.5000036  )
         7           Al  tau(   7) = (   0.2500278   0.0001539   0.7498880  )
         8           Al  tau(   8) = (   0.0000549   0.2501136   0.7502101  )
         9           Al  tau(   9) = (   0.0002375   0.5001078  -0.0000154  )
        10           Al  tau(  10) = (   0.2501396   0.7501762   0.0004054  )
        11           Al  tau(  11) = (   0.2501891   0.5001088   0.2502510  )
        12           Al  tau(  12) = (   0.0000383   0.7500455   0.2500253  )
        13           Al  tau(  13) = (   0.0001102   0.5001562   0.5000990  )
        14           Al  tau(  14) = (   0.2499640   0.7500632   0.4998706  )
        15           Al  tau(  15) = (   0.2503366   0.4997894   0.7496960  )
        16           Al  tau(  16) = (  -0.0003280   0.7497055   0.7499931  )
        17           Al  tau(  17) = (   0.5002037  -0.0001004  -0.0000387  )
        18           Al  tau(  18) = (   0.7499123   0.2500941  -0.0002332  )
        19           Al  tau(  19) = (   0.7496354  -0.0000959   0.2500771  )
        20           Al  tau(  20) = (   0.4999751   0.2499614   0.2498317  )
        21           Al  tau(  21) = (   0.4999211   0.0002929   0.4999726  )
        22           Al  tau(  22) = (   0.7500684   0.2496958   0.4999523  )
        23           Al  tau(  23) = (   0.7500357  -0.0000687   0.7500257  )
        24           Al  tau(  24) = (   0.5000114   0.2498864   0.7499948  )
        25           Al  tau(  25) = (   0.4998526   0.5001156  -0.0002192  )
        26           Al  tau(  26) = (   0.7497723   0.7500978   0.0002736  )
        27           Al  tau(  27) = (   0.7501007   0.4998018   0.2499462  )
        28           Al  tau(  28) = (   0.5000878   0.7497908   0.2502093  )
        29           Al  tau(  29) = (   0.4996761   0.5001027   0.5000404  )
        30           Al  tau(  30) = (   0.7501658   0.7499872   0.4998547  )
        31           Al  tau(  31) = (   0.7499472   0.5000095   0.7501393  )
        32           Al  tau(  32) = (   0.5000142   0.7499486   0.7499177  )

     number of k points=    63  Marzari-Vanderbilt smearing, width (Ry)=  0.0080
                       cart. coord. in units 2pi/alat
        k(    1) = (   0.1000000   0.1000000   0.1000000), wk =   0.0320000
        k(    2) = (   0.1000000   0.1000000   0.3000000), wk =   0.0320000
        k(    3) = (   0.1000000   0.1000000  -0.5000000), wk =   0.0320000
        k(    4) = (   0.1000000   0.3000000   0.3000000), wk =   0.0320000
        k(    5) = (   0.1000000   0.3000000  -0.5000000), wk =   0.0320000
        k(    6) = (   0.1000000  -0.5000000  -0.5000000), wk =   0.0320000
        k(    7) = (   0.3000000   0.3000000   0.3000000), wk =   0.0320000
        k(    8) = (   0.3000000   0.3000000  -0.5000000), wk =   0.0320000
        k(    9) = (   0.3000000  -0.5000000  -0.5000000), wk =   0.0320000
        k(   10) = (  -0.5000000  -0.5000000  -0.5000000), wk =   0.0160000
        k(   11) = (  -0.1000000  -0.1000000   0.1000000), wk =   0.0320000
        k(   12) = (  -0.1000000   0.1000000  -0.1000000), wk =   0.0320000
        k(   13) = (   0.1000000  -0.1000000  -0.1000000), wk =   0.0320000
        k(   14) = (  -0.1000000  -0.1000000   0.3000000), wk =   0.0320000
        k(   15) = (  -0.1000000   0.1000000  -0.3000000), wk =   0.0320000
        k(   16) = (   0.1000000  -0.1000000  -0.3000000), wk =   0.0320000
        k(   17) = (   0.3000000  -0.1000000   0.1000000), wk =   0.0320000
        k(   18) = (  -0.3000000  -0.1000000  -0.1000000), wk =   0.0320000
        k(   19) = (   0.3000000   0.1000000  -0.1000000), wk =   0.0320000
        k(   20) = (  -0.3000000   0.1000000   0.1000000), wk =   0.0320000
        k(   21) = (  -0.1000000   0.3000000   0.1000000), wk =   0.0320000
        k(   22) = (  -0.1000000  -0.3000000  -0.1000000), wk =   0.0320000
        k(   23) = (   0.1000000   0.3000000  -0.1000000), wk =   0.0320000
        k(   24) = (   0.1000000  -0.3000000   0.1000000), wk =   0.0320000
        k(   25) = (  -0.1000000   0.1000000   0.5000000), wk =   0.0320000
        k(   26) = (  -0.5000000  -0.1000000   0.1000000), wk =   0.0320000
        k(   27) = (   0.5000000  -0.1000000  -0.1000000), wk =   0.0320000
        k(   28) = (  -0.1000000  -0.5000000   0.1000000), wk =   0.0320000
        k(   29) = (  -0.1000000   0.5000000  -0.1000000), wk =   0.0320000
        k(   30) = (  -0.1000000  -0.3000000   0.3000000), wk =   0.0320000
        k(   31) = (  -0.1000000   0.3000000  -0.3000000), wk =   0.0320000
        k(   32) = (   0.1000000  -0.3000000  -0.3000000), wk =   0.0320000
        k(   33) = (   0.3000000   0.1000000  -0.3000000), wk =   0.0320000
        k(   34) = (  -0.3000000  -0.1000000  -0.3000000), wk =   0.0320000
        k(   35) = (   0.3000000  -0.1000000   0.3000000), wk =   0.0320000
        k(   36) = (  -0.3000000   0.1000000   0.3000000), wk =   0.0320000
        k(   37) = (   0.3000000  -0.3000000   0.1000000), wk =   0.0320000
        k(   38) = (  -0.3000000  -0.3000000  -0.1000000), wk =   0.0320000
        k(   39) = (   0.3000000   0.3000000  -0.1000000), wk =   0.0320000
        k(   40) = (  -0.3000000   0.3000000   0.1000000), wk =   0.0320000
        k(   41) = (  -0.1000000   0.3000000   0.5000000), wk =   0.0320000
        k(   42) = (   0.3000000   0.1000000   0.5000000), wk =   0.0320000
        k(   43) = (   0.3000000  -0.1000000  -0.5000000), wk =   0.0320000
        k(   44) = (  -0.5000000  -0.3000000   0.1000000), wk =   0.0320000
        k(   45) = (   0.5000000  -0.3000000  -0.1000000), wk =   0.0320000
        k(   46) = (  -0.1000000  -0.5000000   0.3000000), wk =   0.0320000
        k(   47) = (  -0.1000000   0.5000000  -0.3000000), wk =   0.0320000
        k(   48) = (   0.3000000  -0.5000000   0.1000000), wk =   0.0320000
        k(   49) = (   0.3000000   0.5000000  -0.1000000), wk =   0.0320000
        k(   50) = (  -0.5000000   0.1000000   0.3000000), wk =   0.0320000
        k(   51) = (   0.5000000  -0.1000000   0.3000000), wk =   0.0320000
        k(   52) = (  -0.5000000   0.1000000   0.5000000), wk =   0.0320000
        k(   53) = (  -0.5000000   0.5000000   0.1000000), wk =   0.0320000
        k(   54) = (  -0.3000000  -0.3000000   0.3000000), wk =   0.0320000
        k(   55) = (  -0.3000000   0.3000000  -0.3000000), wk =   0.0320000
        k(   56) = (   0.3000000  -0.3000000  -0.3000000), wk =   0.0320000
        k(   57) = (  -0.3000000   0.3000000   0.5000000), wk =   0.0320000
        k(   58) = (  -0.5000000  -0.3000000   0.3000000), wk =   0.0320000
        k(   59) = (   0.5000000  -0.3000000  -0.3000000), wk =   0.0320000
        k(   60) = (  -0.3000000  -0.5000000   0.3000000), wk =   0.0320000
        k(   61) = (  -0.3000000   0.5000000  -0.3000000), wk =   0.0320000
        k(   62) = (  -0.5000000   0.3000000   0.5000000), wk =   0.0320000
        k(   63) = (  -0.5000000   0.5000000   0.3000000), wk =   0.0320000

     Dense  grid:    64589 G-vectors     FFT dimensions: (  50,  50,  50)

     Smooth grid:    63989 G-vectors     FFT dimensions: (  50,  50,  50)

     Estimated max dynamical RAM per process >      33.64 MB

     Estimated total dynamical RAM >     672.79 MB

     Initial potential from superposition of free atoms

     starting charge   95.92671, renormalised to   96.00000
     Starting wfcs are  128 randomized atomic wfcs
     Checking if some PAW data can be deallocated... 

     total cpu time spent up to now is        6.2 secs

     Self-consistent Calculation

     iteration #  1     ecut=    26.00 Ry     beta= 0.10
     Davidson diagonalization with overlap
     ethr =  1.00E-02,  avg # of iterations =  3.0

     Threshold (ethr) on eigenvalues was too large:
     Diagonalizing with lowered threshold

     Davidson diagonalization with overlap
     ethr =  1.92E-04,  avg # of iterations =  3.6

     total cpu time spent up to now is       25.7 secs

     total energy              =   -1264.12777877 Ry
     Harris-Foulkes estimate   =   -1264.13409993 Ry
     estimated scf accuracy    <       0.17980723 Ry

     iteration #  2     ecut=    26.00 Ry     beta= 0.10
     Davidson diagonalization with overlap
     ethr =  1.87E-04,  avg # of iterations =  1.0

     total cpu time spent up to now is       31.8 secs

     total energy              =   -1264.08001119 Ry
     Harris-Foulkes estimate   =   -1264.12861904 Ry
     estimated scf accuracy    <       0.15599672 Ry

     iteration #  3     ecut=    26.00 Ry     beta= 0.10
     Davidson diagonalization with overlap
     ethr =  1.62E-04,  avg # of iterations =  1.0

     total cpu time spent up to now is       37.8 secs

     total energy              =   -1264.08283685 Ry
     Harris-Foulkes estimate   =   -1264.08300171 Ry
     estimated scf accuracy    <       0.00061378 Ry

     iteration #  4     ecut=    26.00 Ry     beta= 0.10
     Davidson diagonalization with overlap
     c_bands:  1 eigenvalues not converged
     ethr =  6.39E-07,  avg # of iterations =  5.0

     total cpu time spent up to now is       51.7 secs

     total energy              =   -1264.08347457 Ry
     Harris-Foulkes estimate   =   -1264.08362482 Ry
     estimated scf accuracy    <       0.00038846 Ry

     iteration #  5     ecut=    26.00 Ry     beta= 0.10
     Davidson diagonalization with overlap
     ethr =  4.05E-07,  avg # of iterations =  1.2

     total cpu time spent up to now is       57.9 secs

     total energy              =   -1264.08327253 Ry
     Harris-Foulkes estimate   =   -1264.08348737 Ry
     estimated scf accuracy    <       0.00024780 Ry

     iteration #  6     ecut=    26.00 Ry     beta= 0.10
     Davidson diagonalization with overlap
     ethr =  2.58E-07,  avg # of iterations =  2.0

     total cpu time spent up to now is       66.6 secs

     total energy              =   -1264.08333568 Ry
     Harris-Foulkes estimate   =   -1264.08333342 Ry
     estimated scf accuracy    <       0.00001048 Ry

     iteration #  7     ecut=    26.00 Ry     beta= 0.10
     Davidson diagonalization with overlap
     ethr =  1.09E-08,  avg # of iterations =  3.2

     total cpu time spent up to now is       74.5 secs

     total energy              =   -1264.08332886 Ry
     Harris-Foulkes estimate   =   -1264.08333663 Ry
     estimated scf accuracy    <       0.00000596 Ry

     iteration #  8     ecut=    26.00 Ry     beta= 0.10
     Davidson diagonalization with overlap
     ethr =  6.20E-09,  avg # of iterations =  2.1

     total cpu time spent up to now is       82.3 secs

     End of self-consistent calculation

          k = 0.1000 0.1000 0.1000 (  7986 PWs)   bands (ev):

    -3.1648  -1.3654  -1.3631  -1.3603  -0.4732  -0.4709  -0.4681   0.4143
     0.4166   0.4194   1.2951   1.2954   1.2980   1.2986   1.2998   1.3012
     2.1712   2.1735   2.1747   2.1765   3.0368   3.0376   3.0383   3.9326
     3.9333   3.9341   4.6178   4.6184   4.6190   4.7877   6.2949   6.2952
     6.2982   6.2988   6.3000   6.3011   6.8020   6.8027   6.8033   7.1398
     7.1403   7.1423   7.1436   7.1448   7.1453   7.9948   7.9971   8.0000
     8.4427   8.4433   8.4450   8.4460   8.4477   8.4493   8.8353   8.8359
     8.8370   8.8382

          k = 0.1000 0.1000 0.3000 (  7974 PWs)   bands (ev):

    -2.9836  -2.0809  -1.1845  -1.1834  -0.2947  -0.2938  -0.2922  -0.2899
     0.5909   0.5919   0.5930   0.5957   1.4720   1.4740   1.4760   2.3455
     2.3466   2.3474   2.3487   2.3511   3.1913   3.2096   3.2155   3.2166
     4.1056   4.7871   4.7876   4.9073   4.9085   4.9578   4.9585   5.6296
     5.6301   5.7470   5.7481   5.8150   6.4907   6.4918   6.6328   6.9734
     6.9740   7.3202   7.3212   7.3247   7.3260   7.4804   7.4813   7.7587
     7.7597   8.1643   8.1649   8.2332   8.2333   8.3266   8.5431   8.7162
     8.7169   9.4678

          k = 0.1000 0.1000-0.5000 (  7978 PWs)   bands (ev):

    -2.6232  -2.6205  -0.8286  -0.8279  -0.8260  -0.8244   0.0604   0.0611
     0.0629   0.0645   0.9452   0.9480   1.8167   1.8180   1.8229   1.8236
     1.8256   1.8264   2.6948   2.6976   3.5553   3.5565   3.5565   3.5576
     4.4148   4.4160   4.4160   4.4171   5.1232   5.1236   5.1259   5.1266
     5.2943   5.2956   6.1483   6.1488   6.1495   6.1505   6.8185   6.8191
     6.8211   6.8228   7.0005   7.0018   7.3084   7.3090   7.3111   7.3120
     7.6577   7.6582   7.6602   7.6619   9.0736   9.0743   9.0759   9.0776
     9.3499   9.3514

          k = 0.1000 0.3000 0.3000 (  7962 PWs)   bands (ev):

    -2.8026  -1.9026  -1.8995  -1.0059  -1.0045  -0.1170  -0.1153  -0.1125
     0.7662   0.7678   0.7683   0.7706   0.7733   1.6466   1.6475   1.6504
     2.5198   2.5229   3.3634   3.3646   3.3800   3.3812   3.3870   3.3899
     4.2229   4.2260   4.2486   4.2783   4.2795   4.9561   5.0666   5.0678
     5.7911   5.7945   5.9509   5.9540   5.9609   5.9621   5.9842   6.6526
     6.7669   6.7691   6.8003   6.8035   6.8372   7.1393   8.0692   8.0714
     8.3158   8.3194   8.4921   8.4938   8.7060   8.7074   8.9131   9.1690
     9.1709   9.3273

          k = 0.1000 0.3000-0.5000 (  7974 PWs)   bands (ev):

    -2.4427  -2.4400  -1.5434  -1.5407  -0.6498  -0.6470   0.2360   0.2392
     0.2411   0.2424   1.1180   1.1212   1.1226   1.1240   1.9918   1.9930
     2.8628   2.8641   2.8675   2.8701   3.7075   3.7102   3.7231   3.7255
     3.7277   3.7291   4.5755   4.5766   4.6182   4.6194   5.2913   5.2941
     5.4275   5.4286   5.4518   5.4544   5.4653   5.4667   6.1554   6.1582
     6.2904   6.2932   7.1683   7.1696   7.4144   7.4167   8.0164   8.0177
     8.0795   8.0806   8.4002   8.4029   8.6624   8.6653   9.0011   9.0036
     9.5473   9.5489

          k = 0.1000-0.5000-0.5000 (  7944 PWs)   bands (ev):

    -2.0832  -2.0822  -2.0798  -2.0784  -0.2948  -0.2937  -0.2913  -0.2899
     0.5909   0.5920   0.5944   0.5958   2.3376   2.3392   2.3397   2.3408
     2.3415   2.3437   2.3447   2.3454   4.0584   4.0601   4.0607   4.0618
     4.0623   4.0647   4.0656   4.0663   4.9590   4.9605   4.9610   4.9620
     4.9631   4.9650   4.9661   4.9667   5.6217   5.6229   5.6255   5.6270
     6.6145   6.6151   6.6165   6.6172   7.9083   7.9091   7.9110   7.9122
     8.3449   8.3455   8.3467   8.3475   9.1890   9.1896   9.1909   9.1917
     9.8220   9.8251

          k = 0.3000 0.3000 0.3000 (  7997 PWs)   bands (ev):

    -2.6219  -1.7239  -1.7216  -1.7188  -0.8291  -0.8268  -0.8240   0.0628
     0.9420   0.9443   0.9471   1.8198   1.8202   1.8228   1.8234   1.8246
     1.8260   2.6941   2.6949   2.6956   3.5358   3.5366   3.5373   4.3916
     4.3918   4.3946   4.3952   4.3965   4.3978   4.4069   4.4092   4.4121
     5.2799   5.2822   5.2851   5.2989   5.2997   5.3005   6.9592   6.9596
     6.9611   6.9626   6.9637   6.9642   7.8132   7.8136   7.8151   7.8165
     7.8176   7.8182   7.8542   8.8310   8.8321   8.8333   9.5344   9.5350
     9.5355   9.7489

          k = 0.3000 0.3000-0.5000 (  7950 PWs)   bands (ev):

    -2.2624  -2.2597  -1.3647  -1.3640  -1.3621  -1.3606  -0.4716  -0.4688
     1.2946   1.2953   1.2971   1.2987   2.1663   2.1675   2.1709   2.1716
     2.1737   2.1744   3.0359   3.0371   3.0372   3.0382   3.8791   3.8796
     3.8816   3.8826   3.8905   3.8915   4.7241   4.7248   4.7267   4.7283
     4.7942   4.7968   5.6428   5.6440   5.6441   5.6451   6.4865   6.4871
     6.4878   6.4888   7.3037   7.3043   7.3062   7.3079   8.1136   8.1143
     8.1148   8.1158   8.9858   8.9870   8.9873   8.9884   9.0277   9.0291
     9.2734   9.2742

          k = 0.3000-0.5000-0.5000 (  7960 PWs)   bands (ev):

    -1.9034  -1.9023  -1.9000  -1.8985  -1.0075  -1.0064  -1.0040  -1.0026
     1.6452   1.6463   1.6487   1.6501   2.5118   2.5134   2.5140   2.5150
     2.5158   2.5179   2.5190   2.5196   3.3785   3.3801   3.3807   3.3817
     3.3825   3.3847   3.3857   3.3864   4.2206   4.2217   4.2242   4.2257
     5.9719   5.9735   5.9740   5.9750   5.9760   5.9781   5.9792   5.9798
     6.8106   6.8112   6.8124   6.8132   7.6665   7.6671   7.6682   7.6690
     8.4713   8.4731   8.4738   8.4749   8.4758   8.4781   8.4792   8.4801
     9.5961   9.5985

          k =-0.5000-0.5000-0.5000 (  8024 PWs)   bands (ev):

    -1.5468  -1.5460  -1.5431  -1.5426  -1.5417  -1.5397  -1.5394  -1.5366
     2.8557   2.8560   2.8574   2.8580   2.8593   2.8602   2.8604   2.8614
     2.8618   2.8624   2.8626   2.8631   2.8637   2.8640   2.8646   2.8647
     2.8655   2.8665   2.8669   2.8673   2.8683   2.8696   2.8712   2.8732
     7.1491   7.1501   7.1508   7.1514   7.1526   7.1532   7.1537   7.1539
     7.1540   7.1547   7.1558   7.1564   7.1571   7.1573   7.1575   7.1583
     7.1587   7.1594   7.1597   7.1600   7.1609   7.1616   7.1633   7.1636
    11.3550  11.3569

          k =-0.1000-0.1000 0.1000 (  7986 PWs)   bands (ev):

    -3.1648  -1.3648  -1.3631  -1.3608  -0.4727  -0.4709  -0.4686   0.4148
     0.4166   0.4189   1.2941   1.2969   1.2973   1.2985   1.2999   1.3014
     2.1718   2.1736   2.1746   2.1760   3.0371   3.0376   3.0380   3.9329
     3.9333   3.9338   4.6180   4.6184   4.6188   4.7877   6.2938   6.2969
     6.2976   6.2983   6.3001   6.3015   6.8023   6.8026   6.8030   7.1398
     7.1416   7.1424   7.1430   7.1441   7.1453   7.9953   7.9971   7.9995
     8.4424   8.4437   8.4451   8.4464   8.4474   8.4490   8.8357   8.8359
     8.8375   8.8379

          k =-0.1000 0.1000-0.1000 (  7986 PWs)   bands (ev):

    -3.1648  -1.3653  -1.3629  -1.3605  -0.4731  -0.4707  -0.4683   0.4143
     0.4168   0.4192   1.2951   1.2956   1.2969   1.2980   1.3004   1.3020
     2.1713   2.1738   2.1745   2.1763   3.0368   3.0376   3.0384   3.9325
     3.9333   3.9342   4.6177   4.6184   4.6191   4.7877   6.2951   6.2957
     6.2968   6.2980   6.3006   6.3020   6.8020   6.8026   6.8034   7.1401
     7.1409   7.1416   7.1435   7.1446   7.1455   7.9949   7.9973   7.9998
     8.4425   8.4435   8.4448   8.4463   8.4477   8.4492   8.8347   8.8354
     8.8369   8.8383

          k = 0.1000-0.1000-0.1000 (  7986 PWs)   bands (ev):

    -3.1648  -1.3650  -1.3635  -1.3602  -0.4728  -0.4713  -0.4680   0.4147
     0.4162   0.4195   1.2948   1.2958   1.2974   1.2984   1.2997   1.3020
     2.1716   2.1731   2.1746   2.1766   3.0367   3.0376   3.0385   3.9324
     3.9333   3.9343   4.6176   4.6184   4.6191   4.7877   6.2947   6.2960
     6.2973   6.2984   6.2996   6.3022   6.8019   6.8026   6.8034   7.1397
     7.1412   7.1417   7.1436   7.1441   7.1458   7.9952   7.9967   8.0000
     8.4430   8.4433   8.4446   8.4462   8.4474   8.4496   8.8339   8.8361
     8.8371   8.8385

          k =-0.1000-0.1000 0.3000 (  7974 PWs)   bands (ev):

    -2.9836  -2.0809  -1.1845  -1.1834  -0.2945  -0.2938  -0.2917  -0.2906
     0.5905   0.5923   0.5935   0.5952   1.4720   1.4738   1.4762   2.3455
     2.3460   2.3478   2.3489   2.3512   3.1914   3.2094   3.2155   3.2169
     4.1056   4.7871   4.7876   4.9073   4.9085   4.9578   4.9585   5.6296
     5.6301   5.7469   5.7481   5.8150   6.4907   6.4918   6.6328   6.9734
     6.9740   7.3202   7.3209   7.3248   7.3262   7.4804   7.4813   7.7587
     7.7597   8.1642   8.1649   8.2333   8.2334   8.3266   8.5431   8.7162
     8.7169   9.4675

          k =-0.1000 0.1000-0.3000 (  7974 PWs)   bands (ev):

    -2.9836  -2.0809  -1.1849  -1.1830  -0.2950  -0.2925  -0.2922  -0.2909
     0.5901   0.5920   0.5940   0.5954   1.4724   1.4741   1.4754   2.3453
     2.3462   2.3476   2.3496   2.3507   3.1913   3.2093   3.2150   3.2175
     4.1056   4.7868   4.7879   4.9069   4.9089   4.9574   4.9589   5.6293
     5.6304   5.7465   5.7485   5.8150   6.4903   6.4922   6.6328   6.9731
     6.9743   7.3205   7.3215   7.3241   7.3260   7.4800   7.4817   7.7582
     7.7602   8.1640   8.1652   8.2332   8.2334   8.3266   8.5431   8.7160
     8.7172   9.4668

          k = 0.1000-0.1000-0.3000 (  7974 PWs)   bands (ev):

    -2.9836  -2.0809  -1.1849  -1.1830  -0.2947  -0.2945  -0.2920  -0.2894
     0.5910   0.5925   0.5934   0.5946   1.4717   1.4733   1.4769   2.3458
     2.3461   2.3476   2.3486   2.3513   3.1913   3.2098   3.2150   3.2170
     4.1056   4.7868   4.7879   4.9069   4.9089   4.9575   4.9589   5.6293
     5.6304   5.7465   5.7485   5.8150   6.4903   6.4922   6.6328   6.9731
     6.9743   7.3192   7.3213   7.3253   7.3263   7.4800   7.4817   7.7582
     7.7602   8.1640   8.1652   8.2332   8.2334   8.3266   8.5432   8.7160
     8.7172   9.4669

          k = 0.3000-0.1000 0.1000 (  7974 PWs)   bands (ev):

    -2.9836  -2.0809  -1.1850  -1.1829  -0.2941  -0.2935  -0.2930  -0.2901
     0.5893   0.5933   0.5940   0.5949   1.4727   1.4740   1.4753   2.3452
     2.3463   2.3475   2.3498   2.3506   3.1913   3.2090   3.2155   3.2173
     4.1056   4.7871   4.7876   4.9068   4.9090   4.9579   4.9585   5.6296
     5.6301   5.7464   5.7486   5.8150   6.4901   6.4923   6.6328   6.9734
     6.9739   7.3203   7.3216   7.3241   7.3260   7.4805   7.4812   7.7588
     7.7596   8.1639   8.1652   8.2333   8.2334   8.3266   8.5431   8.7159
     8.7173   9.4678

          k =-0.3000-0.1000-0.1000 (  7974 PWs)   bands (ev):

    -2.9836  -2.0809  -1.1855  -1.1824  -0.2951  -0.2933  -0.2926  -0.2897
     0.5893   0.5919   0.5944   0.5960   1.4728   1.4741   1.4751   2.3444
     2.3461   2.3486   2.3495   2.3508   3.1913   3.2088   3.2149   3.2180
     4.1056   4.7868   4.7878   4.9063   4.9095   4.9576   4.9588   5.6294
     5.6304   5.7459   5.7491   5.8150   6.4897   6.4928   6.6329   6.9731
     6.9742   7.3201   7.3221   7.3236   7.3264   7.4802   7.4816   7.7583
     7.7601   8.1636   8.1655   8.2333   8.2334   8.3266   8.5431   8.7156
     8.7176   9.4661

          k = 0.3000 0.1000-0.1000 (  7974 PWs)   bands (ev):

    -2.9836  -2.0809  -1.1850  -1.1829  -0.2944  -0.2934  -0.2922  -0.2906
     0.5900   0.5929   0.5936   0.5950   1.4726   1.4740   1.4754   2.3452
     2.3467   2.3478   2.3491   2.3505   3.1914   3.2092   3.2153   3.2172
     4.1056   4.7871   4.7876   4.9068   4.9090   4.9579   4.9585   5.6296
     5.6301   5.7464   5.7486   5.8150   6.4901   6.4923   6.6328   6.9734
     6.9739   7.3204   7.3215   7.3242   7.3260   7.4805   7.4812   7.7588
     7.7596   8.1639   8.1652   8.2333   8.2334   8.3266   8.5431   8.7159
     8.7173   9.4681

          k =-0.3000 0.1000 0.1000 (  7974 PWs)   bands (ev):

    -2.9836  -2.0809  -1.1855  -1.1824  -0.2948  -0.2939  -0.2924  -0.2895
     0.5902   0.5917   0.5935   0.5960   1.4725   1.4736   1.4758   2.3447
     2.3467   2.3482   2.3487   2.3512   3.1913   3.2094   3.2146   3.2178
     4.1056   4.7869   4.7878   4.9063   4.9095   4.9575   4.9588   5.6294
     5.6303   5.7459   5.7491   5.8150   6.4897   6.4928   6.6328   6.9731
     6.9742   7.3194   7.3221   7.3241   7.3264   7.4801   7.4816   7.7584
     7.7601   8.1636   8.1655   8.2332   8.2334   8.3266   8.5431   8.7156
     8.7176   9.4661

          k =-0.1000 0.3000 0.1000 (  7974 PWs)   bands (ev):

    -2.9836  -2.0809  -1.1856  -1.1823  -0.2954  -0.2933  -0.2932  -0.2886
     0.5902   0.5917   0.5942   0.5954   1.4717   1.4737   1.4765   2.3441
     2.3467   2.3483   2.3494   2.3509   3.1913   3.2095   3.2145   3.2177
     4.1056   4.7873   4.7874   4.9061   4.9097   4.9581   4.9582   5.6298
     5.6299   5.7458   5.7493   5.8150   6.4895   6.4929   6.6328   6.9736
     6.9737   7.3197   7.3207   7.3247   7.3270   7.4808   7.4809   7.7591
     7.7593   8.1636   8.1656   8.2333   8.2333   8.3266   8.5431   8.7155
     8.7176   9.4659

          k =-0.1000-0.3000-0.1000 (  7974 PWs)   bands (ev):

    -2.9836  -2.0809  -1.1859  -1.1820  -0.2956  -0.2940  -0.2927  -0.2883
     0.5897   0.5924   0.5940   0.5955   1.4717   1.4740   1.4763   2.3445
     2.3460   2.3482   2.3497   2.3509   3.1913   3.2094   3.2144   3.2180
     4.1056   4.7871   4.7876   4.9058   4.9100   4.9578   4.9585   5.6296
     5.6301   5.7454   5.7496   5.8150   6.4892   6.4932   6.6328   6.9734
     6.9740   7.3194   7.3214   7.3236   7.3276   7.4805   7.4812   7.7587
     7.7597   8.1634   8.1657   8.2333   8.2334   8.3266   8.5431   8.7154
     8.7178   9.4657

          k = 0.1000 0.3000-0.1000 (  7974 PWs)   bands (ev):

    -2.9836  -2.0809  -1.1856  -1.1823  -0.2955  -0.2935  -0.2916  -0.2901
     0.5900   0.5922   0.5936   0.5957   1.4725   1.4737   1.4757   2.3446
     2.3467   2.3481   2.3491   2.3509   3.1914   3.2091   3.2145   3.2181
     4.1057   4.7873   4.7874   4.9061   4.9097   4.9581   4.9582   5.6298
     5.6299   5.7458   5.7493   5.8150   6.4896   6.4929   6.6328   6.9736
     6.9737   7.3198   7.3217   7.3237   7.3268   7.4808   7.4809   7.7591
     7.7593   8.1636   8.1656   8.2333   8.2333   8.3266   8.5431   8.7155
     8.7176   9.4660

          k = 0.1000-0.3000 0.1000 (  7974 PWs)   bands (ev):

    -2.9836  -2.0809  -1.1859  -1.1820  -0.2962  -0.2935  -0.2915  -0.2895
     0.5895   0.5923   0.5937   0.5961   1.4722   1.4738   1.4760   2.3444
     2.3460   2.3481   2.3495   2.3514   3.1913   3.2092   3.2145   3.2181
     4.1056   4.7871   4.7876   4.9058   4.9100   4.9578   4.9585   5.6296
     5.6301   5.7454   5.7496   5.8150   6.4892   6.4932   6.6328   6.9734
     6.9740   7.3194   7.3218   7.3237   7.3271   7.4805   7.4813   7.7587
     7.7597   8.1634   8.1657   8.2333   8.2334   8.3266   8.5431   8.7154
     8.7178   9.4657

          k =-0.1000 0.1000 0.5000 (  7978 PWs)   bands (ev):

    -2.6232  -2.6205  -0.8291  -0.8272  -0.8264  -0.8241   0.0598   0.0617
     0.0625   0.0649   0.9452   0.9480   1.8165   1.8178   1.8228   1.8240
     1.8254   1.8268   2.6948   2.6976   3.5549   3.5561   3.5568   3.5581
     4.4144   4.4156   4.4164   4.4176   5.1228   5.1240   5.1257   5.1268
     5.2943   5.2956   6.1478   6.1490   6.1496   6.1507   6.8179   6.8198
     6.8207   6.8231   7.0004   7.0018   7.3081   7.3094   7.3109   7.3122
     7.6574   7.6586   7.6602   7.6617   9.0733   9.0744   9.0759   9.0775
     9.3496   9.3508

          k =-0.5000-0.1000 0.1000 (  7978 PWs)   bands (ev):

    -2.6233  -2.6204  -0.8297  -0.8271  -0.8258  -0.8242   0.0592   0.0619
     0.0631   0.0647   0.9451   0.9481   1.8167   1.8177   1.8230   1.8235
     1.8255   1.8268   2.6947   2.6977   3.5547   3.5561   3.5569   3.5582
     4.4142   4.4156   4.4164   4.4177   5.1232   5.1234   5.1258   5.1270
     5.2943   5.2957   6.1481   6.1488   6.1491   6.1509   6.8172   6.8199
     6.8213   6.8229   7.0004   7.0018   7.3084   7.3089   7.3109   7.3124
     7.6569   7.6587   7.6606   7.6617   9.0729   9.0745   9.0764   9.0775
     9.3499   9.3513

          k = 0.5000-0.1000-0.1000 (  7978 PWs)   bands (ev):

    -2.6233  -2.6204  -0.8300  -0.8267  -0.8262  -0.8239   0.0589   0.0622
     0.0627   0.0650   0.9451   0.9481   1.8168   1.8176   1.8225   1.8240
     1.8258   1.8267   2.6947   2.6977   3.5541   3.5556   3.5575   3.5586
     4.4136   4.4151   4.4170   4.4182   5.1228   5.1238   5.1259   5.1269
     5.2943   5.2957   6.1478   6.1490   6.1496   6.1506   6.8170   6.8204
     6.8208   6.8233   7.0004   7.0018   7.3080   7.3092   7.3111   7.3122
     7.6571   7.6586   7.6598   7.6624   9.0731   9.0744   9.0756   9.0783
     9.3499   9.3506

          k =-0.1000-0.5000 0.1000 (  7978 PWs)   bands (ev):

    -2.6222  -2.6215  -0.8288  -0.8283  -0.8258  -0.8240   0.0602   0.0607
     0.0631   0.0649   0.9462   0.9469   1.8169   1.8175   1.8241   1.8243
     1.8250   1.8254   2.6958   2.6966   3.5547   3.5548   3.5579   3.5585
     4.4142   4.4143   4.4174   4.4180   5.1244   5.1245   5.1252   5.1253
     5.2948   5.2952   6.1490   6.1491   6.1494   6.1495   6.8183   6.8188
     6.8213   6.8230   7.0009   7.0013   7.3097   7.3098   7.3105   7.3106
     7.6578   7.6590   7.6603   7.6609   9.0736   9.0749   9.0761   9.0767
     9.3507   9.3511

          k =-0.1000 0.5000-0.1000 (  7978 PWs)   bands (ev):

    -2.6222  -2.6215  -0.8290  -0.8284  -0.8252  -0.8242   0.0599   0.0605
     0.0637   0.0648   0.9462   0.9469   1.8168   1.8174   1.8242   1.8245
     1.8247   1.8256   2.6958   2.6966   3.5543   3.5546   3.5583   3.5587
     4.4138   4.4141   4.4179   4.4182   5.1244   5.1245   5.1247   5.1257
     5.2948   5.2952   6.1487   6.1490   6.1491   6.1502   6.8180   6.8187
     6.8218   6.8229   7.0009   7.0013   7.3097   7.3098   7.3100   7.3111
     7.6580   7.6586   7.6601   7.6612   9.0739   9.0745   9.0759   9.0769
     9.3505   9.3511

          k =-0.1000-0.3000 0.3000 (  7962 PWs)   bands (ev):

    -2.8026  -1.9021  -1.9000  -1.0059  -1.0045  -0.1178  -0.1143  -0.1127
     0.7665   0.7675   0.7683   0.7712   0.7726   1.6467   1.6478   1.6500
     2.5202   2.5224   3.3637   3.3644   3.3802   3.3807   3.3874   3.3897
     4.2234   4.2256   4.2486   4.2786   4.2791   4.9561   5.0669   5.0675
     5.7916   5.7940   5.9513   5.9534   5.9612   5.9620   5.9842   6.6526
     6.7673   6.7687   6.8008   6.8030   6.8372   7.1393   8.0696   8.0711
     8.3163   8.3188   8.4924   8.4936   8.7063   8.7070   8.9131   9.1695
     9.1704   9.3273

          k =-0.1000 0.3000-0.3000 (  7962 PWs)   bands (ev):

    -2.8026  -1.9021  -1.9000  -1.0053  -1.0050  -0.1173  -0.1144  -0.1130
     0.7667   0.7676   0.7690   0.7705   0.7724   1.6467   1.6478   1.6500
     2.5203   2.5224   3.3638   3.3644   3.3802   3.3809   3.3873   3.3895
     4.2234   4.2255   4.2486   4.2786   4.2791   4.9561   5.0669   5.0675
     5.7916   5.7940   5.9513   5.9535   5.9612   5.9619   5.9842   6.6526
     6.7673   6.7687   6.8008   6.8030   6.8372   7.1393   8.0696   8.0711
     8.3163   8.3188   8.4924   8.4936   8.7063   8.7070   8.9131   9.1695
     9.1704   9.3273

          k = 0.1000-0.3000-0.3000 (  7962 PWs)   bands (ev):

    -2.8026  -1.9026  -1.8995  -1.0062  -1.0042  -0.1179  -0.1149  -0.1120
     0.7661   0.7667   0.7688   0.7715   0.7731   1.6467   1.6480   1.6498
     2.5198   2.5229   3.3634   3.3646   3.3799   3.3810   3.3871   3.3902
     4.2229   4.2260   4.2487   4.2783   4.2794   4.9561   5.0666   5.0677
     5.7911   5.7945   5.9507   5.9538   5.9610   5.9624   5.9842   6.6526
     6.7670   6.7691   6.8003   6.8034   6.8372   7.1393   8.0692   8.0714
     8.3158   8.3194   8.4921   8.4938   8.7059   8.7074   8.9131   9.1690
     9.1709   9.3273

          k = 0.3000 0.1000-0.3000 (  7962 PWs)   bands (ev):

    -2.8026  -1.9027  -1.8994  -1.0059  -1.0045  -0.1171  -0.1148  -0.1128
     0.7654   0.7678   0.7686   0.7713   0.7731   1.6459   1.6475   1.6511
     2.5196   2.5230   3.3640   3.3641   3.3806   3.3808   3.3868   3.3899
     4.2228   4.2262   4.2485   4.2788   4.2791   4.9560   5.0671   5.0673
     5.7909   5.7947   5.9508   5.9542   5.9614   5.9615   5.9842   6.6526
     6.7668   6.7691   6.8002   6.8037   6.8372   7.1393   8.0691   8.0715
     8.3156   8.3195   8.4921   8.4939   8.7066   8.7067   8.9131   9.1699
     9.1700   9.3273

          k =-0.3000-0.1000-0.3000 (  7962 PWs)   bands (ev):

    -2.8026  -1.9030  -1.8991  -1.0059  -1.0045  -0.1179  -0.1144  -0.1124
     0.7652   0.7670   0.7697   0.7710   0.7732   1.6464   1.6476   1.6505
     2.5193   2.5233   3.3637   3.3643   3.3801   3.3810   3.3866   3.3905
     4.2225   4.2265   4.2486   4.2786   4.2792   4.9560   5.0669   5.0675
     5.7906   5.7950   5.9505   5.9543   5.9612   5.9619   5.9842   6.6526
     6.7667   6.7693   6.7999   6.8040   6.8372   7.1393   8.0689   8.0718
     8.3153   8.3198   8.4919   8.4940   8.7063   8.7071   8.9131   9.1694
     9.1705   9.3273

          k = 0.3000-0.1000 0.3000 (  7962 PWs)   bands (ev):

    -2.8026  -1.9030  -1.8991  -1.0062  -1.0042  -0.1176  -0.1144  -0.1127
     0.7656   0.7672   0.7687   0.7712   0.7735   1.6459   1.6478   1.6508
     2.5193   2.5233   3.3637   3.3644   3.3803   3.3810   3.3865   3.3903
     4.2225   4.2265   4.2485   4.2786   4.2792   4.9560   5.0669   5.0675
     5.7906   5.7950   5.9505   5.9545   5.9611   5.9618   5.9842   6.6526
     6.7667   6.7692   6.7999   6.8040   6.8372   7.1393   8.0689   8.0718
     8.3153   8.3198   8.4919   8.4940   8.7063   8.7071   8.9131   9.1694
     9.1705   9.3273

          k =-0.3000 0.1000 0.3000 (  7962 PWs)   bands (ev):

    -2.8026  -1.9027  -1.8994  -1.0053  -1.0050  -0.1174  -0.1154  -0.1120
     0.7657   0.7679   0.7694   0.7701   0.7731   1.6466   1.6475   1.6503
     2.5196   2.5230   3.3640   3.3641   3.3803   3.3806   3.3868   3.3902
     4.2228   4.2262   4.2486   4.2788   4.2789   4.9561   5.0671   5.0672
     5.7909   5.7947   5.9507   5.9541   5.9614   5.9618   5.9841   6.6526
     6.7669   6.7691   6.8001   6.8036   6.8372   7.1393   8.0691   8.0715
     8.3156   8.3195   8.4921   8.4939   8.7066   8.7067   8.9131   9.1699
     9.1700   9.3273

          k = 0.3000-0.3000 0.1000 (  7962 PWs)   bands (ev):

    -2.8026  -1.9020  -1.9001  -1.0059  -1.0045  -0.1160  -0.1150  -0.1137
     0.7665   0.7670   0.7697   0.7705   0.7724   1.6459   1.6472   1.6514
     2.5204   2.5223   3.3634   3.3647   3.3801   3.3815   3.3872   3.3892
     4.2235   4.2254   4.2485   4.2782   4.2797   4.9560   5.0665   5.0679
     5.7917   5.7939   5.9517   5.9536   5.9606   5.9620   5.9842   6.6526
     6.7673   6.7686   6.8009   6.8029   6.8372   7.1393   8.0696   8.0710
     8.3165   8.3187   8.4925   8.4935   8.7058   8.7074   8.9131   9.1688
     9.1711   9.3273

          k =-0.3000-0.3000-0.1000 (  7962 PWs)   bands (ev):

    -2.8026  -1.9016  -1.9005  -1.0053  -1.0050  -0.1166  -0.1151  -0.1131
     0.7668   0.7671   0.7691   0.7705   0.7726   1.6461   1.6476   1.6508
     2.5208   2.5219   3.3637   3.3644   3.3802   3.3810   3.3879   3.3890
     4.2239   4.2250   4.2486   4.2786   4.2793   4.9560   5.0668   5.0675
     5.7922   5.7934   5.9520   5.9531   5.9611   5.9618   5.9842   6.6526
     6.7676   6.7683   6.8014   6.8025   6.8372   7.1393   8.0699   8.0707
     8.3169   8.3182   8.4927   8.4933   8.7062   8.7070   8.9131   9.1694
     9.1705   9.3273

          k = 0.3000 0.3000-0.1000 (  7962 PWs)   bands (ev):

    -2.8026  -1.9016  -1.9005  -1.0062  -1.0042  -0.1163  -0.1148  -0.1138
     0.7666   0.7672   0.7691   0.7704   0.7728   1.6461   1.6477   1.6506
     2.5208   2.5219   3.3637   3.3643   3.3804   3.3811   3.3878   3.3889
     4.2239   4.2250   4.2486   4.2786   4.2792   4.9560   5.0668   5.0675
     5.7922   5.7934   5.9520   5.9531   5.9611   5.9617   5.9842   6.6526
     6.7676   6.7683   6.8014   6.8025   6.8372   7.1393   8.0699   8.0707
     8.3169   8.3182   8.4927   8.4933   8.7063   8.7071   8.9131   9.1694
     9.1705   9.3273

          k =-0.3000 0.3000 0.1000 (  7962 PWs)   bands (ev):

    -2.8026  -1.9020  -1.9001  -1.0059  -1.0045  -0.1166  -0.1156  -0.1125
     0.7660   0.7681   0.7694   0.7699   0.7728   1.6464   1.6480   1.6501
     2.5204   2.5223   3.3633   3.3647   3.3798   3.3813   3.3875   3.3895
     4.2235   4.2254   4.2486   4.2782   4.2796   4.9561   5.0665   5.0678
     5.7917   5.7939   5.9515   5.9534   5.9608   5.9622   5.9842   6.6525
     6.7674   6.7687   6.8009   6.8029   6.8372   7.1393   8.0696   8.0710
     8.3165   8.3187   8.4924   8.4935   8.7058   8.7075   8.9131   9.1688
     9.1710   9.3274

          k =-0.1000 0.3000 0.5000 (  7974 PWs)   bands (ev):

    -2.4427  -2.4400  -1.5434  -1.5407  -0.6498  -0.6470   0.2363   0.2394
     0.2404   0.2427   1.1187   1.1205   1.1224   1.1241   1.9918   1.9930
     2.8630   2.8638   2.8676   2.8700   3.7075   3.7103   3.7233   3.7259
     3.7276   3.7287   4.5755   4.5766   4.6182   4.6194   5.2913   5.2942
     5.4275   5.4286   5.4519   5.4545   5.4653   5.4665   6.1554   6.1582
     6.2904   6.2932   7.1683   7.1696   7.4144   7.4167   8.0164   8.0177
     8.0795   8.0806   8.4002   8.4029   8.6624   8.6653   9.0011   9.0036
     9.5473   9.5489

          k = 0.3000 0.1000 0.5000 (  7974 PWs)   bands (ev):

    -2.4427  -2.4400  -1.5434  -1.5407  -0.6498  -0.6470   0.2373   0.2386
     0.2408   0.2419   1.1179   1.1209   1.1223   1.1247   1.9918   1.9930
     2.8630   2.8643   2.8672   2.8700   3.7075   3.7103   3.7230   3.7258
     3.7276   3.7289   4.5756   4.5767   4.6181   4.6193   5.2913   5.2941
     5.4274   5.4285   5.4518   5.4545   5.4654   5.4667   6.1554   6.1582
     6.2904   6.2932   7.1683   7.1696   7.4144   7.4167   8.0164   8.0177
     8.0795   8.0806   8.4002   8.4029   8.6624   8.6653   9.0011   9.0036
     9.5473   9.5489

          k = 0.3000-0.1000-0.5000 (  7974 PWs)   bands (ev):

    -2.4427  -2.4400  -1.5434  -1.5407  -0.6498  -0.6470   0.2365   0.2395
     0.2410   0.2418   1.1176   1.1208   1.1229   1.1245   1.9918   1.9930
     2.8628   2.8640   2.8674   2.8702   3.7075   3.7102   3.7231   3.7255
     3.7280   3.7289   4.5756   4.5767   4.6181   4.6194   5.2913   5.2941
     5.4274   5.4285   5.4518   5.4545   5.4654   5.4666   6.1554   6.1582
     6.2904   6.2932   7.1683   7.1696   7.4144   7.4167   8.0164   8.0177
     8.0795   8.0806   8.4002   8.4029   8.6624   8.6653   9.0011   9.0036
     9.5473   9.5489

          k =-0.5000-0.3000 0.1000 (  7974 PWs)   bands (ev):

    -2.4428  -2.4399  -1.5435  -1.5406  -0.6499  -0.6469   0.2377   0.2387
     0.2406   0.2417   1.1175   1.1205   1.1225   1.1252   1.9918   1.9931
     2.8627   2.8641   2.8674   2.8703   3.7074   3.7103   3.7231   3.7260
     3.7275   3.7288   4.5756   4.5767   4.6181   4.6194   5.2912   5.2942
     5.4274   5.4286   5.4518   5.4547   5.4653   5.4667   6.1553   6.1583
     6.2903   6.2933   7.1682   7.1696   7.4143   7.4168   8.0163   8.0178
     8.0794   8.0806   8.4001   8.4030   8.6623   8.6654   9.0010   9.0037
     9.5472   9.5490

          k = 0.5000-0.3000-0.1000 (  7974 PWs)   bands (ev):

    -2.4428  -2.4399  -1.5435  -1.5406  -0.6499  -0.6469   0.2372   0.2385
     0.2395   0.2435   1.1186   1.1206   1.1218   1.1246   1.9918   1.9931
     2.8629   2.8642   2.8672   2.8701   3.7074   3.7104   3.7230   3.7259
     3.7275   3.7290   4.5755   4.5766   4.6181   4.6195   5.2912   5.2943
     5.4274   5.4286   5.4518   5.4546   5.4652   5.4667   6.1553   6.1583
     6.2903   6.2933   7.1682   7.1696   7.4143   7.4168   8.0163   8.0178
     8.0794   8.0806   8.4001   8.4030   8.6623   8.6654   9.0010   9.0038
     9.5472   9.5490

          k =-0.1000-0.5000 0.3000 (  7974 PWs)   bands (ev):

    -2.4417  -2.4410  -1.5424  -1.5417  -0.6488  -0.6481   0.2373   0.2383
     0.2406   0.2426   1.1198   1.1203   1.1222   1.1235   1.9923   1.9926
     2.8632   2.8636   2.8685   2.8690   3.7085   3.7093   3.7239   3.7249
     3.7279   3.7287   4.5759   4.5762   4.6186   4.6190   5.2923   5.2931
     5.4279   5.4282   5.4528   5.4535   5.4657   5.4662   6.1564   6.1572
     6.2915   6.2922   7.1687   7.1691   7.4152   7.4158   8.0168   8.0172
     8.0799   8.0802   8.4012   8.4019   8.6634   8.6642   9.0020   9.0027
     9.5479   9.5483

          k =-0.1000 0.5000-0.3000 (  7974 PWs)   bands (ev):

    -2.4417  -2.4410  -1.5424  -1.5417  -0.6488  -0.6481   0.2383   0.2391
     0.2403   0.2410   1.1194   1.1206   1.1227   1.1231   1.9923   1.9926
     2.8635   2.8638   2.8682   2.8689   3.7086   3.7093   3.7242   3.7247
     3.7281   3.7283   4.5760   4.5763   4.6186   4.6189   5.2923   5.2931
     5.4279   5.4282   5.4528   5.4535   5.4657   5.4661   6.1564   6.1572
     6.2915   6.2922   7.1687   7.1691   7.4152   7.4158   8.0168   8.0172
     8.0799   8.0802   8.4012   8.4019   8.6635   8.6642   9.0020   9.0027
     9.5479   9.5483

          k = 0.3000-0.5000 0.1000 (  7974 PWs)   bands (ev):

    -2.4417  -2.4410  -1.5424  -1.5417  -0.6488  -0.6480   0.2384   0.2389
     0.2400   0.2415   1.1189   1.1198   1.1226   1.1245   1.9923   1.9926
     2.8632   2.8637   2.8684   2.8691   3.7085   3.7092   3.7238   3.7249
     3.7280   3.7286   4.5760   4.5763   4.6186   4.6189   5.2923   5.2931
     5.4278   5.4281   5.4528   5.4536   5.4658   5.4662   6.1564   6.1572
     6.2915   6.2922   7.1687   7.1691   7.4152   7.4158   8.0168   8.0172
     8.0799   8.0802   8.4012   8.4019   8.6635   8.6642   9.0020   9.0027
     9.5478   9.5483

          k = 0.3000 0.5000-0.1000 (  7974 PWs)   bands (ev):

    -2.4417  -2.4410  -1.5424  -1.5417  -0.6488  -0.6480   0.2379   0.2392
     0.2406   0.2410   1.1198   1.1205   1.1224   1.1231   1.9923   1.9926
     2.8634   2.8638   2.8683   2.8691   3.7085   3.7092   3.7243   3.7249
     3.7279   3.7282   4.5760   4.5763   4.6186   4.6189   5.2923   5.2931
     5.4279   5.4282   5.4529   5.4536   5.4657   5.4661   6.1564   6.1572
     6.2915   6.2922   7.1687   7.1691   7.4152   7.4158   8.0169   8.0172
     8.0799   8.0802   8.4012   8.4019   8.6635   8.6642   9.0020   9.0027
     9.5479   9.5483

          k =-0.5000 0.1000 0.3000 (  7974 PWs)   bands (ev):

    -2.4428  -2.4399  -1.5435  -1.5406  -0.6499  -0.6469   0.2360   0.2389
     0.2406   0.2433   1.1189   1.1209   1.1219   1.1240   1.9918   1.9931
     2.8630   2.8642   2.8672   2.8701   3.7074   3.7104   3.7229   3.7256
     3.7277   3.7292   4.5755   4.5767   4.6181   4.6195   5.2912   5.2943
     5.4275   5.4287   5.4517   5.4545   5.4653   5.4667   6.1553   6.1583
     6.2903   6.2933   7.1682   7.1696   7.4143   7.4168   8.0163   8.0178
     8.0794   8.0806   8.4001   8.4030   8.6622   8.6654   9.0010   9.0038
     9.5472   9.5490

          k = 0.5000-0.1000 0.3000 (  7974 PWs)   bands (ev):

    -2.4428  -2.4399  -1.5435  -1.5406  -0.6499  -0.6469   0.2372   0.2387
     0.2401   0.2426   1.1186   1.1203   1.1214   1.1254   1.9918   1.9931
     2.8629   2.8640   2.8673   2.8702   3.7074   3.7104   3.7230   3.7261
     3.7274   3.7289   4.5755   4.5767   4.6181   4.6194   5.2912   5.2942
     5.4274   5.4286   5.4518   5.4546   5.4653   5.4667   6.1553   6.1583
     6.2903   6.2933   7.1682   7.1696   7.4143   7.4168   8.0163   8.0178
     8.0794   8.0806   8.4001   8.4030   8.6622   8.6654   9.0010   9.0038
     9.5472   9.5490

          k =-0.5000 0.1000 0.5000 (  7944 PWs)   bands (ev):

    -2.0847  -2.0818  -2.0798  -2.0773  -0.2963  -0.2933  -0.2913  -0.2888
     0.5894   0.5924   0.5944   0.5969   2.3372   2.3379   2.3395   2.3418
     2.3427   2.3430   2.3442   2.3463   4.0581   4.0588   4.0604   4.0627
     4.0637   4.0638   4.0652   4.0671   4.9585   4.9594   4.9607   4.9631
     4.9638   4.9645   4.9656   4.9676   5.6202   5.6233   5.6256   5.6281
     6.6139   6.6151   6.6167   6.6176   7.9070   7.9096   7.9109   7.9131
     8.3442   8.3457   8.3468   8.3480   9.1883   9.1898   9.1909   9.1921
     9.8217   9.8255

          k =-0.5000 0.5000 0.1000 (  7944 PWs)   bands (ev):

    -2.0831  -2.0820  -2.0794  -2.0792  -0.2947  -0.2935  -0.2909  -0.2907
     0.5910   0.5922   0.5948   0.5950   2.3377   2.3391   2.3397   2.3412
     2.3419   2.3435   2.3444   2.3450   4.0586   4.0601   4.0605   4.0622
     4.0627   4.0643   4.0655   4.0660   4.9592   4.9604   4.9612   4.9624
     4.9633   4.9649   4.9655   4.9663   5.6219   5.6232   5.6259   5.6261
     6.6147   6.6154   6.6165   6.6167   7.9083   7.9092   7.9115   7.9117
     8.3450   8.3456   8.3469   8.3471   9.1891   9.1897   9.1911   9.1912
     9.8220   9.8252

          k =-0.3000-0.3000 0.3000 (  7997 PWs)   bands (ev):

    -2.6219  -1.7234  -1.7216  -1.7193  -0.8286  -0.8268  -0.8245   0.0628
     0.9425   0.9443   0.9466   1.8189   1.8217   1.8221   1.8233   1.8247
     1.8262   2.6944   2.6949   2.6953   3.5361   3.5366   3.5370   4.3905
     4.3935   4.3939   4.3951   4.3965   4.3981   4.4074   4.4092   4.4116
     5.2804   5.2822   5.2846   5.2992   5.2997   5.3002   6.9592   6.9606
     6.9614   6.9622   6.9630   6.9640   7.8133   7.8145   7.8154   7.8161
     7.8168   7.8180   7.8542   8.8314   8.8321   8.8328   9.5346   9.5350
     9.5353   9.7487

          k =-0.3000 0.3000-0.3000 (  7997 PWs)   bands (ev):

    -2.6219  -1.7239  -1.7215  -1.7190  -0.8290  -0.8266  -0.8242   0.0628
     0.9420   0.9445   0.9469   1.8199   1.8204   1.8217   1.8228   1.8252
     1.8268   2.6940   2.6949   2.6957   3.5357   3.5366   3.5374   4.3916
     4.3922   4.3934   4.3946   4.3971   4.3987   4.4069   4.4094   4.4119
     5.2799   5.2824   5.2849   5.2988   5.2997   5.3005   6.9592   6.9601
     6.9607   6.9627   6.9634   6.9643   7.8133   7.8141   7.8147   7.8167
     7.8173   7.8182   7.8542   8.8309   8.8321   8.8333   9.5344   9.5349
     9.5355   9.7485

          k = 0.3000-0.3000-0.3000 (  7997 PWs)   bands (ev):

    -2.6219  -1.7235  -1.7220  -1.7188  -0.8287  -0.8272  -0.8239   0.0628
     0.9424   0.9439   0.9472   1.8196   1.8206   1.8221   1.8231   1.8245
     1.8268   2.6939   2.6949   2.6958   3.5356   3.5366   3.5375   4.3914
     4.3924   4.3939   4.3950   4.3963   4.3987   4.4073   4.4088   4.4122
     5.2802   5.2818   5.2852   5.2987   5.2997   5.3006   6.9589   6.9603
     6.9608   6.9627   6.9631   6.9646   7.8128   7.8143   7.8149   7.8167
     7.8170   7.8185   7.8542   8.8307   8.8321   8.8335   9.5343   9.5350
     9.5356   9.7477

          k =-0.3000 0.3000 0.5000 (  7950 PWs)   bands (ev):

    -2.2624  -2.2597  -1.3653  -1.3634  -1.3625  -1.3602  -0.4716  -0.4688
     1.2940   1.2959   1.2968   1.2991   2.1659   2.1673   2.1709   2.1720
     2.1735   2.1748   3.0355   3.0367   3.0375   3.0387   3.8785   3.8801
     3.8814   3.8827   3.8906   3.8916   4.7235   4.7254   4.7263   4.7286
     4.7942   4.7968   5.6424   5.6436   5.6444   5.6456   6.4861   6.4873
     6.4879   6.4890   7.3036   7.3046   7.3063   7.3077   8.1131   8.1143
     8.1151   8.1162   8.9854   8.9868   8.9874   8.9889   9.0277   9.0291
     9.2730   9.2747

          k =-0.5000-0.3000 0.3000 (  7950 PWs)   bands (ev):

    -2.2625  -2.2595  -1.3659  -1.3632  -1.3620  -1.3604  -0.4717  -0.4687
     1.2934   1.2961   1.2973   1.2989   2.1662   2.1671   2.1710   2.1716
     2.1736   2.1749   3.0353   3.0367   3.0375   3.0388   3.8790   3.8794
     3.8814   3.8830   3.8904   3.8918   4.7229   4.7256   4.7268   4.7285
     4.7941   4.7969   5.6422   5.6435   5.6444   5.6458   6.4864   6.4871
     6.4874   6.4892   7.3031   7.3047   7.3067   7.3076   8.1138   8.1141
     8.1146   8.1162   8.9852   8.9868   8.9875   8.9891   9.0277   9.0292
     9.2741   9.2756

          k = 0.5000-0.3000-0.3000 (  7950 PWs)   bands (ev):

    -2.2625  -2.2595  -1.3661  -1.3628  -1.3623  -1.3601  -0.4717  -0.4687
     1.2931   1.2965   1.2969   1.2992   2.1663   2.1670   2.1705   2.1720
     2.1739   2.1747   3.0348   3.0363   3.0381   3.0392   3.8786   3.8797
     3.8815   3.8829   3.8903   3.8919   4.7226   4.7260   4.7264   4.7288
     4.7941   4.7969   5.6416   5.6431   5.6450   5.6462   6.4861   6.4873
     6.4879   6.4890   7.3033   7.3045   7.3059   7.3084   8.1131   8.1144
     8.1149   8.1161   8.9845   8.9864   8.9881   8.9895   9.0277   9.0292
     9.2741   9.2755

          k =-0.3000-0.5000 0.3000 (  7950 PWs)   bands (ev):

    -2.2614  -2.2607  -1.3649  -1.3644  -1.3619  -1.3602  -0.4705  -0.4698
     1.2944   1.2949   1.2974   1.2991   2.1663   2.1670   2.1722   2.1723
     2.1730   2.1735   3.0353   3.0354   3.0385   3.0391   3.8804   3.8804
     3.8808   3.8812   3.8910   3.8912   4.7239   4.7244   4.7269   4.7286
     4.7952   4.7958   5.6421   5.6424   5.6455   5.6460   6.4873   6.4874
     6.4877   6.4878   7.3038   7.3052   7.3063   7.3068   8.1144   8.1145
     8.1148   8.1149   8.9853   8.9854   8.9886   8.9893   9.0282   9.0287
     9.2741   9.2748

          k =-0.3000 0.5000-0.3000 (  7950 PWs)   bands (ev):

    -2.2614  -2.2607  -1.3652  -1.3645  -1.3614  -1.3603  -0.4706  -0.4698
     1.2941   1.2947   1.2979   1.2990   2.1662   2.1668   2.1722   2.1726
     2.1729   2.1737   3.0349   3.0352   3.0389   3.0393   3.8801   3.8803
     3.8805   3.8818   3.8911   3.8913   4.7236   4.7242   4.7274   4.7285
     4.7952   4.7958   5.6417   5.6421   5.6459   5.6463   6.4869   6.4873
     6.4874   6.4885   7.3042   7.3048   7.3061   7.3071   8.1141   8.1143
     8.1146   8.1156   8.9848   8.9852   8.9890   8.9895   9.0282   9.0286
     9.2742   9.2746

          k =-0.5000 0.3000 0.5000 (  7960 PWs)   bands (ev):

    -1.9049  -1.9019  -1.8999  -1.8975  -1.0089  -1.0060  -1.0040  -1.0015
     1.6437   1.6467   1.6487   1.6512   2.5115   2.5122   2.5137   2.5160
     2.5169   2.5172   2.5184   2.5205   3.3782   3.3789   3.3805   3.3827
     3.3837   3.3839   3.3852   3.3872   4.2191   4.2221   4.2243   4.2268
     5.9714   5.9723   5.9737   5.9761   5.9770   5.9775   5.9786   5.9808
     6.8100   6.8114   6.8125   6.8136   7.6658   7.6672   7.6683   7.6695
     8.4711   8.4719   8.4734   8.4760   8.4769   8.4774   8.4786   8.4810
     9.5951   9.5991

          k =-0.5000 0.5000 0.3000 (  7960 PWs)   bands (ev):

    -1.9033  -1.9021  -1.8995  -1.8993  -1.0073  -1.0062  -1.0036  -1.0034
     1.6453   1.6465   1.6491   1.6494   2.5120   2.5133   2.5139   2.5154
     2.5161   2.5178   2.5187   2.5193   3.3787   3.3800   3.3806   3.3821
     3.3828   3.3845   3.3855   3.3860   4.2207   4.2220   4.2247   4.2249
     5.9720   5.9733   5.9741   5.9755   5.9763   5.9780   5.9788   5.9795
     6.8107   6.8114   6.8126   6.8127   7.6665   7.6672   7.6685   7.6686
     8.4716   8.4731   8.4737   8.4753   8.4761   8.4781   8.4790   8.4796
     9.5968   9.5988

     the Fermi energy is     8.0030 ev

!    total energy              =   -1264.08332992 Ry
     Harris-Foulkes estimate   =   -1264.08332961 Ry
     estimated scf accuracy    <       0.00000054 Ry

     total all-electron energy =    -15540.652352 Ry

     The total energy is the sum of the following terms:

     one-electron contribution =     101.24778057 Ry
     hartree contribution      =       0.19340317 Ry
     xc contribution           =     -82.91023779 Ry
     ewald contribution        =    -172.93188273 Ry
     one-center paw contrib.   =   -1109.68118836 Ry
     smearing contrib. (-TS)   =      -0.00120479 Ry

     convergence has been achieved in   8 iterations

     Forces acting on atoms (cartesian axes, Ry/au):

     atom    1 type  1   force =    -0.00005841   -0.00000630    0.00001956
     atom    2 type  1   force =    -0.00010404    0.00023241    0.00006759
     atom    3 type  1   force =     0.00024076    0.00000919   -0.00051449
     atom    4 type  1   force =     0.00001115   -0.00022986   -0.00036081
     atom    5 type  1   force =    -0.00045227   -0.00036562    0.00033122
     atom    6 type  1   force =    -0.00019663    0.00039132   -0.00003889
     atom    7 type  1   force =    -0.00019140   -0.00051693    0.00033555
     atom    8 type  1   force =    -0.00002204   -0.00006034   -0.00028894
     atom    9 type  1   force =    -0.00003569   -0.00002527    0.00008802
     atom   10 type  1   force =    -0.00020431   -0.00011735   -0.00070166
     atom   11 type  1   force =    -0.00028981   -0.00028373   -0.00037824
     atom   12 type  1   force =    -0.00017597   -0.00000491   -0.00004535
     atom   13 type  1   force =    -0.00015364   -0.00033851   -0.00004645
     atom   14 type  1   force =    -0.00004533    0.00013176    0.00044735
     atom   15 type  1   force =    -0.00053526    0.00038236    0.00054504
     atom   16 type  1   force =     0.00066363    0.00051018    0.00019440
     atom   17 type  1   force =    -0.00037178    0.00007875    0.00005402
     atom   18 type  1   force =     0.00021110   -0.00012030    0.00038230
     atom   19 type  1   force =     0.00059690    0.00022500   -0.00012126
     atom   20 type  1   force =     0.00006927    0.00021371    0.00006537
     atom   21 type  1   force =     0.00017093   -0.00057337    0.00010945
     atom   22 type  1   force =    -0.00007806    0.00061296    0.00021466
     atom   23 type  1   force =     0.00013122   -0.00006354   -0.00013318
     atom   24 type  1   force =     0.00013731    0.00009558   -0.00000549
     atom   25 type  1   force =     0.00009286   -0.00016747    0.00031204
     atom   26 type  1   force =     0.00034234   -0.00025518   -0.00025718
     atom   27 type  1   force =    -0.00016251    0.00012492    0.00008697
     atom   28 type  1   force =    -0.00009429    0.00025479   -0.00010372
     atom   29 type  1   force =     0.00085948   -0.00034286   -0.00009306
     atom   30 type  1   force =    -0.00023982    0.00004566    0.00019586
     atom   31 type  1   force =    -0.00004753   -0.00009503   -0.00033495
     atom   32 type  1   force =    -0.00006816    0.00025798   -0.00002574

     Total force =     0.002796     Total SCF correction =     0.000417
     SCF correction compared to forces is large: reduce conv_thr to get better values


     Computing stress (Cartesian axis) and pressure

          total   stress  (Ry/bohr**3)                   (kbar)     P=   -2.37
  -0.00001608   0.00000000   0.00000000         -2.37      0.00      0.00
   0.00000000  -0.00001609  -0.00000000          0.00     -2.37     -0.00
   0.00000000  -0.00000000  -0.00001608          0.00     -0.00     -2.37


     Writing output data file fe_scf_fcc_2.save/
 
     init_run     :      5.16s CPU      5.41s WALL (       1 calls)
     electrons    :     74.20s CPU     76.17s WALL (       1 calls)
     forces       :      1.08s CPU      1.13s WALL (       1 calls)
     stress       :      3.53s CPU      3.55s WALL (       1 calls)

     Called by init_run:
     wfcinit      :      4.98s CPU      5.12s WALL (       1 calls)
     potinit      :      0.12s CPU      0.12s WALL (       1 calls)
     hinit0       :      0.04s CPU      0.14s WALL (       1 calls)

     Called by electrons:
     c_bands      :     64.95s CPU     66.57s WALL (       9 calls)
     sum_band     :      8.33s CPU      8.65s WALL (       9 calls)
     v_of_rho     :      0.06s CPU      0.07s WALL (       9 calls)
     newd         :      0.05s CPU      0.06s WALL (       9 calls)
     PAW_pot      :      0.87s CPU      0.88s WALL (       9 calls)
     mix_rho      :      0.02s CPU      0.02s WALL (       9 calls)

     Called by c_bands:
     init_us_2    :      1.33s CPU      1.36s WALL (    1323 calls)
     cegterg      :     61.44s CPU     63.01s WALL (     567 calls)

     Called by sum_band:
     sum_band:bec :      0.10s CPU      0.10s WALL (     567 calls)
     addusdens    :      0.04s CPU      0.05s WALL (       9 calls)

     Called by *egterg:
     h_psi        :     42.20s CPU     43.59s WALL (    2021 calls)
     s_psi        :      3.47s CPU      3.50s WALL (    2021 calls)
     g_psi        :      0.15s CPU      0.15s WALL (    1391 calls)
     cdiaghg      :     12.38s CPU     12.43s WALL (    1895 calls)

     Called by h_psi:
     h_psi:pot    :     41.98s CPU     43.36s WALL (    2021 calls)
     h_psi:calbec :      3.87s CPU      4.12s WALL (    2021 calls)
     vloc_psi     :     34.52s CPU     35.62s WALL (    2021 calls)
     add_vuspsi   :      3.56s CPU      3.59s WALL (    2021 calls)

     General routines
     calbec       :      5.99s CPU      6.40s WALL (    2903 calls)
     fft          :      0.09s CPU      0.19s WALL (     142 calls)
     ffts         :      0.01s CPU      0.01s WALL (      18 calls)
     fftw         :     37.75s CPU     38.96s WALL (  220844 calls)
     interpolate  :      0.01s CPU      0.01s WALL (       9 calls)
 
     Parallel routines
     fft_scatt_xy :      3.59s CPU      3.71s WALL (  221004 calls)
     fft_scatt_yz :     19.46s CPU     20.12s WALL (  221004 calls)
 
     PWSCF        :  1m25.44s CPU     1m28.28s WALL

 
   This run was terminated on:   1:16:12  12Mar2020            

=------------------------------------------------------------------------------=
   JOB DONE.
=------------------------------------------------------------------------------=
