--------------------------------------------------------------------------
WARNING: There was an error initializing an OpenFabrics device.

  Local host:   bear-pg0211u40b
  Local device: mlx5_0
--------------------------------------------------------------------------

     Program PWSCF v.6.3 starts on 12Mar2020 at  1: 5:49 

     This program is part of the open-source Quantum ESPRESSO suite
     for quantum simulation of materials; please cite
         "P. Giannozzi et al., J. Phys.:Condens. Matter 21 395502 (2009);
         "P. Giannozzi et al., J. Phys.:Condens. Matter 29 465901 (2017);
          URL http://www.quantum-espresso.org", 
     in publications or presentations arising from this work. More details at
     http://www.quantum-espresso.org/quote

     Parallel version (MPI & OpenMP), running on      20 processor cores
     Number of MPI processes:                20
     Threads/MPI process:                     1

     MPI processes distributed on     1 nodes
     R & G space division:  proc/nbgrp/npool/nimage =      20
     Reading input from wd/kpoints/file_000134.in
Warning: card &IONS ignored
Warning: card ION_DYNAMICS = 'BFGS', ignored
Warning: card / ignored
Warning: card &CELL ignored
Warning: card CELL_DYNAMICS = 'BFGS', ignored
Warning: card CELL_FACTOR = 2.0, ignored
Warning: card PRESS = 0.0, ignored
Warning: card / ignored

     Current dimensions of program PWSCF are:
     Max number of different atomic species (ntypx) = 10
     Max number of k-points (npk) =  40000
     Max angular momentum in pseudopotentials (lmaxx) =  3
     Message from routine read_upf::
     Pseudo file /rds/homes/b/bxp912/pp/Al.pbe-nl-kjpaw_psl.1.0.0.UPF has been successfully fixed on the fly.
To avoid this message in the future you can permanently fix 
 your pseudo files following instructions given in: 
https://gitlab.com/QEF/q-e/blob/master/upftools/how_to_fix_upf.md
               file Al.pbe-nl-kjpaw_psl.1.0.0.UPF: wavefunction(s)  3S 3P renormalized

     Subspace diagonalization in iterative solution of the eigenvalue problem:
     a serial algorithm will be used

 
     Parallelization info
     --------------------
     sticks:   dense  smooth     PW     G-vecs:    dense   smooth      PW
     Min          96      96     27                 3225     3198     487
     Max          98      97     28                 3241     3201     490
     Sum        1941    1933    553                64589    63989    9771
 


     bravais-lattice index     =            0
     lattice parameter (alat)  =      15.2712  a.u.
     unit-cell volume          =    3561.3897 (a.u.)^3
     number of atoms/cell      =           32
     number of atomic types    =            1
     number of electrons       =        96.00
     number of Kohn-Sham states=           58
     kinetic-energy cutoff     =      26.0000  Ry
     charge density cutoff     =     105.0000  Ry
     convergence threshold     =      1.0E-06
     mixing beta               =       0.1000
     number of iterations used =           10  TF        mixing
     Exchange-correlation      = SLA PW PBX PBC ( 1  4  3  4 0 0)

     celldm(1)=  15.271200  celldm(2)=   0.000000  celldm(3)=   0.000000
     celldm(4)=   0.000000  celldm(5)=   0.000000  celldm(6)=   0.000000

     crystal axes: (cart. coord. in units of alat)
               a(1) = (   1.000000   0.000000   0.000000 )  
               a(2) = (   0.000000   1.000000   0.000000 )  
               a(3) = (   0.000000   0.000000   1.000000 )  

     reciprocal axes: (cart. coord. in units 2 pi/alat)
               b(1) = (  1.000000  0.000000  0.000000 )  
               b(2) = (  0.000000  1.000000  0.000000 )  
               b(3) = (  0.000000  0.000000  1.000000 )  


     PseudoPot. # 1 for Al read from file:
     /rds/homes/b/bxp912/pp/Al.pbe-nl-kjpaw_psl.1.0.0.UPF
     MD5 check sum: 339dbea23cf3ab9a065ad45c0f9085d7
     Pseudo is Projector augmented-wave + core cor, Zval =  3.0
     Generated using "atomic" code by A. Dal Corso v.5.1
     Shape of augmentation charge: PSQ
     Using radial grid of 1135 points,  4 beta functions with: 
                l(1) =   0
                l(2) =   0
                l(3) =   1
                l(4) =   1
     Q(r) pseudized with 0 coefficients 


     atomic species   valence    mass     pseudopotential
        Al             3.00    26.98200     Al( 1.00)

     No symmetry found



   Cartesian axes

     site n.     atom                  positions (alat units)
         1           Al  tau(   1) = (  -0.0000327   0.0000095   0.0000680  )
         2           Al  tau(   2) = (   0.2500796   0.2498100   0.0000703  )
         3           Al  tau(   3) = (   0.2499071   0.0000305   0.2502955  )
         4           Al  tau(   4) = (  -0.0000200   0.2502187   0.2501837  )
         5           Al  tau(   5) = (   0.0002558   0.0002521   0.4998810  )
         6           Al  tau(   6) = (   0.2501194   0.2498326   0.5000036  )
         7           Al  tau(   7) = (   0.2500278   0.0001539   0.7498880  )
         8           Al  tau(   8) = (   0.0000549   0.2501136   0.7502101  )
         9           Al  tau(   9) = (   0.0002375   0.5001078  -0.0000154  )
        10           Al  tau(  10) = (   0.2501396   0.7501762   0.0004054  )
        11           Al  tau(  11) = (   0.2501891   0.5001088   0.2502510  )
        12           Al  tau(  12) = (   0.0000383   0.7500455   0.2500253  )
        13           Al  tau(  13) = (   0.0001102   0.5001562   0.5000990  )
        14           Al  tau(  14) = (   0.2499640   0.7500632   0.4998706  )
        15           Al  tau(  15) = (   0.2503366   0.4997894   0.7496960  )
        16           Al  tau(  16) = (  -0.0003280   0.7497055   0.7499931  )
        17           Al  tau(  17) = (   0.5002037  -0.0001004  -0.0000387  )
        18           Al  tau(  18) = (   0.7499123   0.2500941  -0.0002332  )
        19           Al  tau(  19) = (   0.7496354  -0.0000959   0.2500771  )
        20           Al  tau(  20) = (   0.4999751   0.2499614   0.2498317  )
        21           Al  tau(  21) = (   0.4999211   0.0002929   0.4999726  )
        22           Al  tau(  22) = (   0.7500684   0.2496958   0.4999523  )
        23           Al  tau(  23) = (   0.7500357  -0.0000687   0.7500257  )
        24           Al  tau(  24) = (   0.5000114   0.2498864   0.7499948  )
        25           Al  tau(  25) = (   0.4998526   0.5001156  -0.0002192  )
        26           Al  tau(  26) = (   0.7497723   0.7500978   0.0002736  )
        27           Al  tau(  27) = (   0.7501007   0.4998018   0.2499462  )
        28           Al  tau(  28) = (   0.5000878   0.7497908   0.2502093  )
        29           Al  tau(  29) = (   0.4996761   0.5001027   0.5000404  )
        30           Al  tau(  30) = (   0.7501658   0.7499872   0.4998547  )
        31           Al  tau(  31) = (   0.7499472   0.5000095   0.7501393  )
        32           Al  tau(  32) = (   0.5000142   0.7499486   0.7499177  )

     number of k points=    14  Marzari-Vanderbilt smearing, width (Ry)=  0.0050
                       cart. coord. in units 2pi/alat
        k(    1) = (   0.1666667   0.1666667   0.1666667), wk =   0.1481481
        k(    2) = (   0.1666667   0.1666667  -0.5000000), wk =   0.1481481
        k(    3) = (   0.1666667  -0.5000000  -0.5000000), wk =   0.1481481
        k(    4) = (  -0.5000000  -0.5000000  -0.5000000), wk =   0.0740741
        k(    5) = (  -0.1666667  -0.1666667   0.1666667), wk =   0.1481481
        k(    6) = (  -0.1666667   0.1666667  -0.1666667), wk =   0.1481481
        k(    7) = (   0.1666667  -0.1666667  -0.1666667), wk =   0.1481481
        k(    8) = (  -0.1666667   0.1666667   0.5000000), wk =   0.1481481
        k(    9) = (  -0.5000000  -0.1666667   0.1666667), wk =   0.1481481
        k(   10) = (   0.5000000  -0.1666667  -0.1666667), wk =   0.1481481
        k(   11) = (  -0.1666667  -0.5000000   0.1666667), wk =   0.1481481
        k(   12) = (  -0.1666667   0.5000000  -0.1666667), wk =   0.1481481
        k(   13) = (  -0.5000000   0.1666667   0.5000000), wk =   0.1481481
        k(   14) = (  -0.5000000   0.5000000   0.1666667), wk =   0.1481481

     Dense  grid:    64589 G-vectors     FFT dimensions: (  50,  50,  50)

     Smooth grid:    63989 G-vectors     FFT dimensions: (  50,  50,  50)

     Estimated max dynamical RAM per process >      16.38 MB

     Estimated total dynamical RAM >     327.61 MB

     Initial potential from superposition of free atoms

     starting charge   95.92671, renormalised to   96.00000
     Starting wfcs are  128 randomized atomic wfcs
     Checking if some PAW data can be deallocated... 

     total cpu time spent up to now is        2.3 secs

     Self-consistent Calculation

     iteration #  1     ecut=    26.00 Ry     beta= 0.10
     Davidson diagonalization with overlap
     ethr =  1.00E-02,  avg # of iterations =  3.0

     Threshold (ethr) on eigenvalues was too large:
     Diagonalizing with lowered threshold

     Davidson diagonalization with overlap
     ethr =  1.93E-04,  avg # of iterations =  3.6

     total cpu time spent up to now is        6.8 secs

     total energy              =   -1264.10099455 Ry
     Harris-Foulkes estimate   =   -1264.10715482 Ry
     estimated scf accuracy    <       0.18081253 Ry

     iteration #  2     ecut=    26.00 Ry     beta= 0.10
     Davidson diagonalization with overlap
     ethr =  1.88E-04,  avg # of iterations =  1.0

     total cpu time spent up to now is        8.2 secs

     total energy              =   -1264.05407633 Ry
     Harris-Foulkes estimate   =   -1264.10180520 Ry
     estimated scf accuracy    <       0.15693693 Ry

     iteration #  3     ecut=    26.00 Ry     beta= 0.10
     Davidson diagonalization with overlap
     ethr =  1.63E-04,  avg # of iterations =  1.0

     total cpu time spent up to now is        9.6 secs

     total energy              =   -1264.05692413 Ry
     Harris-Foulkes estimate   =   -1264.05706064 Ry
     estimated scf accuracy    <       0.00062132 Ry

     iteration #  4     ecut=    26.00 Ry     beta= 0.10
     Davidson diagonalization with overlap
     ethr =  6.47E-07,  avg # of iterations =  4.9

     total cpu time spent up to now is       12.8 secs

     total energy              =   -1264.05754773 Ry
     Harris-Foulkes estimate   =   -1264.05770657 Ry
     estimated scf accuracy    <       0.00036445 Ry

     iteration #  5     ecut=    26.00 Ry     beta= 0.10
     Davidson diagonalization with overlap
     ethr =  3.80E-07,  avg # of iterations =  1.0

     total cpu time spent up to now is       14.3 secs

     total energy              =   -1264.05735672 Ry
     Harris-Foulkes estimate   =   -1264.05755775 Ry
     estimated scf accuracy    <       0.00023488 Ry

     iteration #  6     ecut=    26.00 Ry     beta= 0.10
     Davidson diagonalization with overlap
     ethr =  2.45E-07,  avg # of iterations =  2.0

     total cpu time spent up to now is       16.3 secs

     total energy              =   -1264.05741971 Ry
     Harris-Foulkes estimate   =   -1264.05742108 Ry
     estimated scf accuracy    <       0.00001369 Ry

     iteration #  7     ecut=    26.00 Ry     beta= 0.10
     Davidson diagonalization with overlap
     ethr =  1.43E-08,  avg # of iterations =  3.0

     total cpu time spent up to now is       18.1 secs

     total energy              =   -1264.05741114 Ry
     Harris-Foulkes estimate   =   -1264.05742058 Ry
     estimated scf accuracy    <       0.00000648 Ry

     iteration #  8     ecut=    26.00 Ry     beta= 0.10
     Davidson diagonalization with overlap
     ethr =  6.75E-09,  avg # of iterations =  2.0

     total cpu time spent up to now is       19.8 secs

     End of self-consistent calculation

          k = 0.1667 0.1667 0.1667 (  8003 PWs)   bands (ev):

    -3.0431  -1.5438  -1.5413  -1.5383  -0.0588  -0.0580  -0.0558  -0.0547
    -0.0533  -0.0498   1.4117   1.4129   1.4151   1.4163   1.4174   1.4180
     1.4202   2.8661   2.8679   2.8692   2.8699   2.8718   2.8743   4.2339
     4.2345   4.2352   4.3313   4.3320   4.3327   5.6428   5.6431   5.6461
     5.6468   5.6482   5.6495   5.7598   7.0610   7.0613   7.0630   7.0647
     7.0656   7.0664   7.0747   7.0773   7.0804   7.4082   7.4089   7.4096
     8.4791   8.4797   8.4814   8.4827   8.4840   8.4845   8.8190   8.8205
     8.8216   8.8237

          k = 0.1667 0.1667-0.5000 (  7946 PWs)   bands (ev):

    -2.5418  -2.5396  -1.0456  -1.0448  -1.0435  -1.0420   0.4333   0.4351
     0.4366   0.4377   0.4392   0.4398   1.8955   1.8967   1.9016   1.9022
     1.9038   1.9045   3.3447   3.3457   3.3461   3.3464   3.3488   3.3505
     4.7062   4.7067   4.7083   4.7091   4.7730   4.7742   4.7743   4.7754
     4.8035   4.8047   6.1405   6.1412   6.1425   6.1442   6.2247   6.2252
     6.2260   6.2269   7.5415   7.5421   7.5435   7.5451   7.6425   7.6437
     7.8577   7.8583   7.8596   7.8606   8.9806   8.9809   8.9821   8.9828
     9.3410   9.3429

          k = 0.1667-0.5000-0.5000 (  7948 PWs)   bands (ev):

    -2.0422  -2.0413  -2.0390  -2.0377  -0.5506  -0.5497  -0.5474  -0.5461
     0.9250   0.9259   0.9282   0.9295   2.3775   2.3787   2.3795   2.3804
     2.3813   2.3834   2.3843   2.3850   3.8174   3.8186   3.8195   3.8204
     3.8212   3.8234   3.8243   3.8249   5.1726   5.1736   5.1761   5.1775
     5.2765   5.2777   5.2785   5.2793   5.2805   5.2824   5.2834   5.2841
     6.6691   6.6697   6.6709   6.6717   8.1014   8.1019   8.1031   8.1039
     8.4128   8.4136   8.4156   8.4167   9.3909   9.3920   9.3937   9.3945
     9.3972   9.3985

          k =-0.5000-0.5000-0.5000 (  8024 PWs)   bands (ev):

    -1.5456  -1.5448  -1.5426  -1.5419  -1.5406  -1.5390  -1.5383  -1.5360
     2.8569   2.8573   2.8585   2.8591   2.8603   2.8612   2.8614   2.8624
     2.8627   2.8633   2.8636   2.8641   2.8644   2.8648   2.8655   2.8657
     2.8665   2.8674   2.8680   2.8682   2.8689   2.8705   2.8719   2.8739
     7.1502   7.1513   7.1519   7.1525   7.1536   7.1543   7.1547   7.1549
     7.1551   7.1557   7.1570   7.1574   7.1581   7.1584   7.1586   7.1592
     7.1597   7.1604   7.1608   7.1610   7.1621   7.1627   7.1643   7.1645
    11.3564  11.3584

          k =-0.1667-0.1667 0.1667 (  8003 PWs)   bands (ev):

    -3.0431  -1.5432  -1.5413  -1.5388  -0.0586  -0.0573  -0.0560  -0.0545
    -0.0522  -0.0519   1.4112   1.4144   1.4148   1.4158   1.4171   1.4180
     1.4203   2.8670   2.8680   2.8687   2.8700   2.8715   2.8741   4.2342
     4.2345   4.2349   4.3316   4.3320   4.3324   5.6419   5.6449   5.6454
     5.6465   5.6482   5.6496   5.7598   7.0610   7.0624   7.0633   7.0642
     7.0651   7.0660   7.0753   7.0773   7.0798   7.4085   7.4089   7.4093
     8.4794   8.4806   8.4816   8.4823   8.4830   8.4844   8.8193   8.8206
     8.8220   8.8231

          k =-0.1667 0.1667-0.1667 (  8003 PWs)   bands (ev):

    -3.0431  -1.5437  -1.5411  -1.5385  -0.0590  -0.0576  -0.0554  -0.0543
    -0.0528  -0.0513   1.4122   1.4129   1.4145   1.4156   1.4176   1.4188
     1.4201   2.8673   2.8677   2.8685   2.8698   2.8719   2.8740   4.2338
     4.2345   4.2352   4.3312   4.3320   4.3328   5.6430   5.6436   5.6448
     5.6461   5.6487   5.6503   5.7599   7.0611   7.0619   7.0627   7.0645
     7.0656   7.0665   7.0748   7.0773   7.0800   7.4081   7.4089   7.4097
     8.4793   8.4801   8.4809   8.4829   8.4836   8.4846   8.8194   8.8203
     8.8216   8.8232

          k = 0.1667-0.1667-0.1667 (  8003 PWs)   bands (ev):

    -3.0431  -1.5434  -1.5418  -1.5382  -0.0591  -0.0573  -0.0559  -0.0553
    -0.0540  -0.0490   1.4124   1.4129   1.4139   1.4159   1.4170   1.4177
     1.4219   2.8663   2.8674   2.8685   2.8704   2.8713   2.8752   4.2338
     4.2345   4.2353   4.3311   4.3320   4.3329   5.6427   5.6438   5.6452
     5.6465   5.6479   5.6504   5.7598   7.0607   7.0621   7.0626   7.0644
     7.0649   7.0667   7.0755   7.0771   7.0805   7.4080   7.4089   7.4098
     8.4787   8.4805   8.4811   8.4829   8.4834   8.4847   8.8195   8.8198
     8.8219   8.8231

          k =-0.1667 0.1667 0.5000 (  7946 PWs)   bands (ev):

    -2.5418  -2.5396  -1.0461  -1.0441  -1.0440  -1.0416   0.4337   0.4346
     0.4361   0.4377   0.4393   0.4404   1.8953   1.8965   1.9015   1.9026
     1.9035   1.9048   3.3443   3.3454   3.3462   3.3474   3.3484   3.3502
     4.7058   4.7071   4.7081   4.7093   4.7727   4.7738   4.7746   4.7758
     4.8036   4.8048   6.1399   6.1419   6.1421   6.1446   6.2243   6.2254
     6.2260   6.2270   7.5413   7.5424   7.5436   7.5450   7.6424   7.6437
     7.8572   7.8588   7.8594   7.8609   8.9803   8.9812   8.9821   8.9828
     9.3409   9.3425

          k =-0.5000-0.1667 0.1667 (  7946 PWs)   bands (ev):

    -2.5419  -2.5395  -1.0467  -1.0440  -1.0434  -1.0417   0.4337   0.4356
     0.4362   0.4377   0.4385   0.4399   1.8954   1.8964   1.9017   1.9021
     1.9036   1.9049   3.3442   3.3454   3.3465   3.3476   3.3482   3.3502
     4.7062   4.7065   4.7082   4.7094   4.7725   4.7737   4.7748   4.7760
     4.8034   4.8048   6.1392   6.1420   6.1427   6.1445   6.2246   6.2253
     6.2256   6.2273   7.5409   7.5425   7.5439   7.5449   7.6424   7.6438
     7.8577   7.8581   7.8594   7.8611   8.9801   8.9813   8.9816   8.9834
     9.3402   9.3435

          k = 0.5000-0.1667-0.1667 (  7946 PWs)   bands (ev):

    -2.5419  -2.5395  -1.0471  -1.0442  -1.0432  -1.0414   0.4325   0.4350
     0.4362   0.4375   0.4388   0.4417   1.8955   1.8963   1.9012   1.9026
     1.9039   1.9047   3.3436   3.3448   3.3466   3.3475   3.3488   3.3508
     4.7058   4.7069   4.7083   4.7093   4.7718   4.7732   4.7754   4.7764
     4.8035   4.8049   6.1389   6.1418   6.1429   6.1448   6.2243   6.2254
     6.2260   6.2270   7.5411   7.5423   7.5432   7.5457   7.6424   7.6438
     7.8572   7.8586   7.8596   7.8609   8.9803   8.9811   8.9821   8.9828
     9.3404   9.3427

          k =-0.1667-0.5000 0.1667 (  7946 PWs)   bands (ev):

    -2.5410  -2.5404  -1.0461  -1.0456  -1.0428  -1.0413   0.4338   0.4345
     0.4364   0.4368   0.4391   0.4411   1.8956   1.8962   1.9026   1.9028
     1.9033   1.9037   3.3440   3.3442   3.3474   3.3478   3.3489   3.3496
     4.7073   4.7073   4.7078   4.7079   4.7723   4.7725   4.7758   4.7763
     4.8040   4.8044   6.1399   6.1405   6.1433   6.1448   6.2254   6.2255
     6.2259   6.2260   7.5414   7.5426   7.5438   7.5444   7.6429   7.6433
     7.8587   7.8588   7.8593   7.8594   8.9813   8.9813   8.9818   8.9819
     9.3408   9.3429

          k =-0.1667 0.5000-0.1667 (  7946 PWs)   bands (ev):

    -2.5410  -2.5404  -1.0464  -1.0458  -1.0423  -1.0414   0.4338   0.4347
     0.4368   0.4377   0.4385   0.4401   1.8956   1.8961   1.9027   1.9029
     1.9031   1.9039   3.3436   3.3440   3.3474   3.3479   3.3494   3.3497
     4.7072   4.7073   4.7074   4.7084   4.7719   4.7722   4.7763   4.7766
     4.8039   4.8042   6.1396   6.1402   6.1438   6.1448   6.2251   6.2255
     6.2256   6.2266   7.5417   7.5422   7.5438   7.5446   7.6429   7.6433
     7.8586   7.8588   7.8588   7.8601   8.9810   8.9811   8.9817   8.9825
     9.3412   9.3417

          k =-0.5000 0.1667 0.5000 (  7948 PWs)   bands (ev):

    -2.0434  -2.0411  -2.0387  -2.0368  -0.5519  -0.5496  -0.5471  -0.5452
     0.9237   0.9260   0.9285   0.9304   2.3771   2.3778   2.3791   2.3813
     2.3823   2.3828   2.3839   2.3858   3.8170   3.8177   3.8190   3.8212
     3.8223   3.8227   3.8239   3.8258   5.1713   5.1737   5.1764   5.1784
     5.2760   5.2769   5.2780   5.2803   5.2813   5.2820   5.2830   5.2849
     6.6685   6.6697   6.6711   6.6721   8.1007   8.1021   8.1032   8.1043
     8.4116   8.4138   8.4157   8.4176   9.3906   9.3919   9.3950   9.3958
     9.3976   9.3990

          k =-0.5000 0.5000 0.1667 (  7948 PWs)   bands (ev):

    -2.0419  -2.0409  -2.0387  -2.0385  -0.5504  -0.5493  -0.5471  -0.5470
     0.9252   0.9263   0.9285   0.9287   2.3776   2.3790   2.3794   2.3809
     2.3816   2.3832   2.3839   2.3846   3.8175   3.8189   3.8193   3.8209
     3.8215   3.8231   3.8240   3.8245   5.1729   5.1740   5.1763   5.1765
     5.2766   5.2779   5.2785   5.2799   5.2807   5.2823   5.2829   5.2836
     6.6693   6.6699   6.6711   6.6712   8.1014   8.1021   8.1033   8.1034
     8.4129   8.4139   8.4159   8.4160   9.3912   9.3925   9.3930   9.3952
     9.3963   9.3977

     the Fermi energy is     7.8520 ev

!    total energy              =   -1264.05741209 Ry
     Harris-Foulkes estimate   =   -1264.05741197 Ry
     estimated scf accuracy    <       0.00000094 Ry

     total all-electron energy =    -15540.626434 Ry

     The total energy is the sum of the following terms:

     one-electron contribution =     101.27988657 Ry
     hartree contribution      =       0.20238254 Ry
     xc contribution           =     -82.91868444 Ry
     ewald contribution        =    -172.93188273 Ry
     one-center paw contrib.   =   -1109.68616640 Ry
     smearing contrib. (-TS)   =      -0.00294763 Ry

     convergence has been achieved in   8 iterations

     Forces acting on atoms (cartesian axes, Ry/au):

     atom    1 type  1   force =     0.00003284    0.00001908    0.00002087
     atom    2 type  1   force =    -0.00006888    0.00022236    0.00009568
     atom    3 type  1   force =     0.00026392   -0.00003028   -0.00050040
     atom    4 type  1   force =    -0.00003892   -0.00016549   -0.00030571
     atom    5 type  1   force =    -0.00043013   -0.00036394    0.00032074
     atom    6 type  1   force =    -0.00011259    0.00043615   -0.00000612
     atom    7 type  1   force =    -0.00012796   -0.00055356    0.00031870
     atom    8 type  1   force =     0.00006551   -0.00007530   -0.00029230
     atom    9 type  1   force =     0.00003074   -0.00005295    0.00013015
     atom   10 type  1   force =    -0.00015541   -0.00008274   -0.00063360
     atom   11 type  1   force =    -0.00019300   -0.00028983   -0.00036378
     atom   12 type  1   force =    -0.00008707    0.00004138   -0.00002589
     atom   13 type  1   force =    -0.00014610   -0.00032382   -0.00004862
     atom   14 type  1   force =     0.00001395    0.00015799    0.00043003
     atom   15 type  1   force =    -0.00049353    0.00029412    0.00047369
     atom   16 type  1   force =     0.00063570    0.00051685    0.00009503
     atom   17 type  1   force =    -0.00044422    0.00006660    0.00010466
     atom   18 type  1   force =     0.00016305   -0.00006220    0.00047830
     atom   19 type  1   force =     0.00047337    0.00022278   -0.00004619
     atom   20 type  1   force =     0.00007336    0.00021103    0.00009557
     atom   21 type  1   force =     0.00020854   -0.00053680    0.00008478
     atom   22 type  1   force =    -0.00016567    0.00059420    0.00011499
     atom   23 type  1   force =     0.00009098   -0.00012756   -0.00025150
     atom   24 type  1   force =     0.00009390    0.00013529   -0.00013242
     atom   25 type  1   force =     0.00008006   -0.00018106    0.00034426
     atom   26 type  1   force =     0.00027051   -0.00020875   -0.00023883
     atom   27 type  1   force =    -0.00021378   -0.00001711    0.00015591
     atom   28 type  1   force =    -0.00012771    0.00024816   -0.00004083
     atom   29 type  1   force =     0.00083084   -0.00034808   -0.00014222
     atom   30 type  1   force =    -0.00030053    0.00005723    0.00024270
     atom   31 type  1   force =    -0.00011190   -0.00009306   -0.00041492
     atom   32 type  1   force =    -0.00010987    0.00028929   -0.00006273

     Total force =     0.002715     Total SCF correction =     0.000487
     SCF correction compared to forces is large: reduce conv_thr to get better values


     Computing stress (Cartesian axis) and pressure

          total   stress  (Ry/bohr**3)                   (kbar)     P=   -1.47
  -0.00000997  -0.00000000  -0.00000001         -1.47     -0.00     -0.00
  -0.00000000  -0.00000995   0.00000000         -0.00     -1.46      0.00
  -0.00000001   0.00000000  -0.00001000         -0.00      0.00     -1.47


     Writing output data file fe_scf_fcc_2.save/
 
     init_run     :      1.37s CPU      1.46s WALL (       1 calls)
     electrons    :     17.08s CPU     17.54s WALL (       1 calls)
     forces       :      0.27s CPU      0.29s WALL (       1 calls)
     stress       :      0.85s CPU      0.85s WALL (       1 calls)

     Called by init_run:
     wfcinit      :      1.09s CPU      1.14s WALL (       1 calls)
     potinit      :      0.11s CPU      0.11s WALL (       1 calls)
     hinit0       :      0.15s CPU      0.18s WALL (       1 calls)

     Called by electrons:
     c_bands      :     14.27s CPU     14.63s WALL (       9 calls)
     sum_band     :      1.90s CPU      1.97s WALL (       9 calls)
     v_of_rho     :      0.06s CPU      0.07s WALL (       9 calls)
     newd         :      0.05s CPU      0.05s WALL (       9 calls)
     PAW_pot      :      0.87s CPU      0.88s WALL (       9 calls)
     mix_rho      :      0.02s CPU      0.02s WALL (       9 calls)

     Called by c_bands:
     init_us_2    :      0.29s CPU      0.30s WALL (     294 calls)
     cegterg      :     13.49s CPU     13.84s WALL (     126 calls)

     Called by sum_band:
     sum_band:bec :      0.02s CPU      0.02s WALL (     126 calls)
     addusdens    :      0.04s CPU      0.05s WALL (       9 calls)

     Called by *egterg:
     h_psi        :      9.27s CPU      9.59s WALL (     440 calls)
     s_psi        :      0.76s CPU      0.77s WALL (     440 calls)
     g_psi        :      0.03s CPU      0.03s WALL (     300 calls)
     cdiaghg      :      2.73s CPU      2.75s WALL (     412 calls)

     Called by h_psi:
     h_psi:pot    :      9.22s CPU      9.54s WALL (     440 calls)
     h_psi:calbec :      0.84s CPU      0.91s WALL (     440 calls)
     vloc_psi     :      7.59s CPU      7.83s WALL (     440 calls)
     add_vuspsi   :      0.78s CPU      0.79s WALL (     440 calls)

     General routines
     calbec       :      1.27s CPU      1.37s WALL (     636 calls)
     fft          :      0.19s CPU      0.23s WALL (     142 calls)
     ffts         :      0.01s CPU      0.01s WALL (      18 calls)
     fftw         :      8.32s CPU      8.59s WALL (   48710 calls)
     interpolate  :      0.01s CPU      0.01s WALL (       9 calls)
 
     Parallel routines
     fft_scatt_xy :      0.79s CPU      0.82s WALL (   48870 calls)
     fft_scatt_yz :      4.44s CPU      4.61s WALL (   48870 calls)
 
     PWSCF        :    20.46s CPU        21.26s WALL

 
   This run was terminated on:   1: 6:10  12Mar2020            

=------------------------------------------------------------------------------=
   JOB DONE.
=------------------------------------------------------------------------------=
