
     Program PWSCF v.6.3 starts on 12Mar2020 at  1: 6:11 

     This program is part of the open-source Quantum ESPRESSO suite
     for quantum simulation of materials; please cite
         "P. Giannozzi et al., J. Phys.:Condens. Matter 21 395502 (2009);
         "P. Giannozzi et al., J. Phys.:Condens. Matter 29 465901 (2017);
          URL http://www.quantum-espresso.org", 
     in publications or presentations arising from this work. More details at
     http://www.quantum-espresso.org/quote

     Parallel version (MPI & OpenMP), running on      20 processor cores
     Number of MPI processes:                20
     Threads/MPI process:                     1

     MPI processes distributed on     1 nodes
     R & G space division:  proc/nbgrp/npool/nimage =      20
     Reading input from wd/kpoints/file_000135.in
Warning: card &IONS ignored
Warning: card ION_DYNAMICS = 'BFGS', ignored
Warning: card / ignored
Warning: card &CELL ignored
Warning: card CELL_DYNAMICS = 'BFGS', ignored
Warning: card CELL_FACTOR = 2.0, ignored
Warning: card PRESS = 0.0, ignored
Warning: card / ignored

     Current dimensions of program PWSCF are:
     Max number of different atomic species (ntypx) = 10
     Max number of k-points (npk) =  40000
     Max angular momentum in pseudopotentials (lmaxx) =  3
     Message from routine read_upf::
     Pseudo file /rds/homes/b/bxp912/pp/Al.pbe-nl-kjpaw_psl.1.0.0.UPF has been successfully fixed on the fly.
To avoid this message in the future you can permanently fix 
 your pseudo files following instructions given in: 
https://gitlab.com/QEF/q-e/blob/master/upftools/how_to_fix_upf.md
               file Al.pbe-nl-kjpaw_psl.1.0.0.UPF: wavefunction(s)  3S 3P renormalized

     Subspace diagonalization in iterative solution of the eigenvalue problem:
     a serial algorithm will be used

 
     Parallelization info
     --------------------
     sticks:   dense  smooth     PW     G-vecs:    dense   smooth      PW
     Min          96      96     27                 3225     3198     487
     Max          98      97     28                 3241     3201     490
     Sum        1941    1933    553                64589    63989    9771
 


     bravais-lattice index     =            0
     lattice parameter (alat)  =      15.2712  a.u.
     unit-cell volume          =    3561.3897 (a.u.)^3
     number of atoms/cell      =           32
     number of atomic types    =            1
     number of electrons       =        96.00
     number of Kohn-Sham states=           58
     kinetic-energy cutoff     =      26.0000  Ry
     charge density cutoff     =     105.0000  Ry
     convergence threshold     =      1.0E-06
     mixing beta               =       0.1000
     number of iterations used =           10  TF        mixing
     Exchange-correlation      = SLA PW PBX PBC ( 1  4  3  4 0 0)

     celldm(1)=  15.271200  celldm(2)=   0.000000  celldm(3)=   0.000000
     celldm(4)=   0.000000  celldm(5)=   0.000000  celldm(6)=   0.000000

     crystal axes: (cart. coord. in units of alat)
               a(1) = (   1.000000   0.000000   0.000000 )  
               a(2) = (   0.000000   1.000000   0.000000 )  
               a(3) = (   0.000000   0.000000   1.000000 )  

     reciprocal axes: (cart. coord. in units 2 pi/alat)
               b(1) = (  1.000000  0.000000  0.000000 )  
               b(2) = (  0.000000  1.000000  0.000000 )  
               b(3) = (  0.000000  0.000000  1.000000 )  


     PseudoPot. # 1 for Al read from file:
     /rds/homes/b/bxp912/pp/Al.pbe-nl-kjpaw_psl.1.0.0.UPF
     MD5 check sum: 339dbea23cf3ab9a065ad45c0f9085d7
     Pseudo is Projector augmented-wave + core cor, Zval =  3.0
     Generated using "atomic" code by A. Dal Corso v.5.1
     Shape of augmentation charge: PSQ
     Using radial grid of 1135 points,  4 beta functions with: 
                l(1) =   0
                l(2) =   0
                l(3) =   1
                l(4) =   1
     Q(r) pseudized with 0 coefficients 


     atomic species   valence    mass     pseudopotential
        Al             3.00    26.98200     Al( 1.00)

     No symmetry found



   Cartesian axes

     site n.     atom                  positions (alat units)
         1           Al  tau(   1) = (  -0.0000327   0.0000095   0.0000680  )
         2           Al  tau(   2) = (   0.2500796   0.2498100   0.0000703  )
         3           Al  tau(   3) = (   0.2499071   0.0000305   0.2502955  )
         4           Al  tau(   4) = (  -0.0000200   0.2502187   0.2501837  )
         5           Al  tau(   5) = (   0.0002558   0.0002521   0.4998810  )
         6           Al  tau(   6) = (   0.2501194   0.2498326   0.5000036  )
         7           Al  tau(   7) = (   0.2500278   0.0001539   0.7498880  )
         8           Al  tau(   8) = (   0.0000549   0.2501136   0.7502101  )
         9           Al  tau(   9) = (   0.0002375   0.5001078  -0.0000154  )
        10           Al  tau(  10) = (   0.2501396   0.7501762   0.0004054  )
        11           Al  tau(  11) = (   0.2501891   0.5001088   0.2502510  )
        12           Al  tau(  12) = (   0.0000383   0.7500455   0.2500253  )
        13           Al  tau(  13) = (   0.0001102   0.5001562   0.5000990  )
        14           Al  tau(  14) = (   0.2499640   0.7500632   0.4998706  )
        15           Al  tau(  15) = (   0.2503366   0.4997894   0.7496960  )
        16           Al  tau(  16) = (  -0.0003280   0.7497055   0.7499931  )
        17           Al  tau(  17) = (   0.5002037  -0.0001004  -0.0000387  )
        18           Al  tau(  18) = (   0.7499123   0.2500941  -0.0002332  )
        19           Al  tau(  19) = (   0.7496354  -0.0000959   0.2500771  )
        20           Al  tau(  20) = (   0.4999751   0.2499614   0.2498317  )
        21           Al  tau(  21) = (   0.4999211   0.0002929   0.4999726  )
        22           Al  tau(  22) = (   0.7500684   0.2496958   0.4999523  )
        23           Al  tau(  23) = (   0.7500357  -0.0000687   0.7500257  )
        24           Al  tau(  24) = (   0.5000114   0.2498864   0.7499948  )
        25           Al  tau(  25) = (   0.4998526   0.5001156  -0.0002192  )
        26           Al  tau(  26) = (   0.7497723   0.7500978   0.0002736  )
        27           Al  tau(  27) = (   0.7501007   0.4998018   0.2499462  )
        28           Al  tau(  28) = (   0.5000878   0.7497908   0.2502093  )
        29           Al  tau(  29) = (   0.4996761   0.5001027   0.5000404  )
        30           Al  tau(  30) = (   0.7501658   0.7499872   0.4998547  )
        31           Al  tau(  31) = (   0.7499472   0.5000095   0.7501393  )
        32           Al  tau(  32) = (   0.5000142   0.7499486   0.7499177  )

     number of k points=    14  Marzari-Vanderbilt smearing, width (Ry)=  0.0070
                       cart. coord. in units 2pi/alat
        k(    1) = (   0.1666667   0.1666667   0.1666667), wk =   0.1481481
        k(    2) = (   0.1666667   0.1666667  -0.5000000), wk =   0.1481481
        k(    3) = (   0.1666667  -0.5000000  -0.5000000), wk =   0.1481481
        k(    4) = (  -0.5000000  -0.5000000  -0.5000000), wk =   0.0740741
        k(    5) = (  -0.1666667  -0.1666667   0.1666667), wk =   0.1481481
        k(    6) = (  -0.1666667   0.1666667  -0.1666667), wk =   0.1481481
        k(    7) = (   0.1666667  -0.1666667  -0.1666667), wk =   0.1481481
        k(    8) = (  -0.1666667   0.1666667   0.5000000), wk =   0.1481481
        k(    9) = (  -0.5000000  -0.1666667   0.1666667), wk =   0.1481481
        k(   10) = (   0.5000000  -0.1666667  -0.1666667), wk =   0.1481481
        k(   11) = (  -0.1666667  -0.5000000   0.1666667), wk =   0.1481481
        k(   12) = (  -0.1666667   0.5000000  -0.1666667), wk =   0.1481481
        k(   13) = (  -0.5000000   0.1666667   0.5000000), wk =   0.1481481
        k(   14) = (  -0.5000000   0.5000000   0.1666667), wk =   0.1481481

     Dense  grid:    64589 G-vectors     FFT dimensions: (  50,  50,  50)

     Smooth grid:    63989 G-vectors     FFT dimensions: (  50,  50,  50)

     Estimated max dynamical RAM per process >      16.38 MB

     Estimated total dynamical RAM >     327.61 MB

     Initial potential from superposition of free atoms

     starting charge   95.92671, renormalised to   96.00000
     Starting wfcs are  128 randomized atomic wfcs
     Checking if some PAW data can be deallocated... 

     total cpu time spent up to now is        2.3 secs

     Self-consistent Calculation

     iteration #  1     ecut=    26.00 Ry     beta= 0.10
     Davidson diagonalization with overlap
     ethr =  1.00E-02,  avg # of iterations =  3.0

     Threshold (ethr) on eigenvalues was too large:
     Diagonalizing with lowered threshold

     Davidson diagonalization with overlap
     ethr =  1.93E-04,  avg # of iterations =  3.6

     total cpu time spent up to now is        6.7 secs

     total energy              =   -1264.10203165 Ry
     Harris-Foulkes estimate   =   -1264.10818295 Ry
     estimated scf accuracy    <       0.18085674 Ry

     iteration #  2     ecut=    26.00 Ry     beta= 0.10
     Davidson diagonalization with overlap
     ethr =  1.88E-04,  avg # of iterations =  1.0

     total cpu time spent up to now is        8.1 secs

     total energy              =   -1264.05516749 Ry
     Harris-Foulkes estimate   =   -1264.10284159 Ry
     estimated scf accuracy    <       0.15697365 Ry

     iteration #  3     ecut=    26.00 Ry     beta= 0.10
     Davidson diagonalization with overlap
     ethr =  1.64E-04,  avg # of iterations =  1.0

     total cpu time spent up to now is        9.5 secs

     total energy              =   -1264.05800294 Ry
     Harris-Foulkes estimate   =   -1264.05813920 Ry
     estimated scf accuracy    <       0.00062331 Ry

     iteration #  4     ecut=    26.00 Ry     beta= 0.10
     Davidson diagonalization with overlap
     ethr =  6.49E-07,  avg # of iterations =  4.9

     total cpu time spent up to now is       12.5 secs

     total energy              =   -1264.05862217 Ry
     Harris-Foulkes estimate   =   -1264.05878414 Ry
     estimated scf accuracy    <       0.00036214 Ry

     iteration #  5     ecut=    26.00 Ry     beta= 0.10
     Davidson diagonalization with overlap
     ethr =  3.77E-07,  avg # of iterations =  1.0

     total cpu time spent up to now is       14.0 secs

     total energy              =   -1264.05843583 Ry
     Harris-Foulkes estimate   =   -1264.05863260 Ry
     estimated scf accuracy    <       0.00023231 Ry

     iteration #  6     ecut=    26.00 Ry     beta= 0.10
     Davidson diagonalization with overlap
     ethr =  2.42E-07,  avg # of iterations =  2.0

     total cpu time spent up to now is       15.9 secs

     total energy              =   -1264.05849790 Ry
     Harris-Foulkes estimate   =   -1264.05849922 Ry
     estimated scf accuracy    <       0.00001351 Ry

     iteration #  7     ecut=    26.00 Ry     beta= 0.10
     Davidson diagonalization with overlap
     ethr =  1.41E-08,  avg # of iterations =  3.1

     total cpu time spent up to now is       17.7 secs

     total energy              =   -1264.05848883 Ry
     Harris-Foulkes estimate   =   -1264.05849877 Ry
     estimated scf accuracy    <       0.00000610 Ry

     iteration #  8     ecut=    26.00 Ry     beta= 0.10
     Davidson diagonalization with overlap
     ethr =  6.35E-09,  avg # of iterations =  2.1

     total cpu time spent up to now is       19.4 secs

     End of self-consistent calculation

          k = 0.1667 0.1667 0.1667 (  8003 PWs)   bands (ev):

    -3.0431  -1.5437  -1.5413  -1.5383  -0.0588  -0.0579  -0.0558  -0.0546
    -0.0533  -0.0498   1.4118   1.4130   1.4151   1.4163   1.4174   1.4181
     1.4203   2.8661   2.8679   2.8692   2.8699   2.8718   2.8744   4.2339
     4.2346   4.2353   4.3313   4.3321   4.3328   5.6429   5.6432   5.6461
     5.6468   5.6482   5.6495   5.7599   7.0610   7.0614   7.0630   7.0647
     7.0657   7.0665   7.0748   7.0773   7.0805   7.4082   7.4089   7.4097
     8.4791   8.4797   8.4814   8.4828   8.4840   8.4846   8.8190   8.8205
     8.8216   8.8237

          k = 0.1667 0.1667-0.5000 (  7946 PWs)   bands (ev):

    -2.5418  -2.5395  -1.0456  -1.0448  -1.0434  -1.0419   0.4333   0.4351
     0.4366   0.4377   0.4393   0.4399   1.8955   1.8968   1.9016   1.9022
     1.9039   1.9046   3.3447   3.3457   3.3461   3.3464   3.3488   3.3506
     4.7062   4.7067   4.7084   4.7092   4.7730   4.7743   4.7744   4.7755
     4.8036   4.8047   6.1405   6.1412   6.1426   6.1443   6.2247   6.2252
     6.2260   6.2269   7.5415   7.5421   7.5436   7.5453   7.6425   7.6438
     7.8576   7.8583   7.8597   7.8607   8.9807   8.9809   8.9821   8.9828
     9.3411   9.3430

          k = 0.1667-0.5000-0.5000 (  7948 PWs)   bands (ev):

    -2.0422  -2.0413  -2.0389  -2.0376  -0.5506  -0.5497  -0.5473  -0.5460
     0.9250   0.9259   0.9283   0.9296   2.3775   2.3787   2.3795   2.3804
     2.3813   2.3834   2.3844   2.3851   3.8174   3.8187   3.8195   3.8204
     3.8212   3.8234   3.8244   3.8250   5.1726   5.1736   5.1762   5.1776
     5.2765   5.2777   5.2785   5.2794   5.2805   5.2825   5.2835   5.2841
     6.6692   6.6697   6.6710   6.6717   8.1014   8.1020   8.1032   8.1039
     8.4128   8.4136   8.4156   8.4168   9.3909   9.3921   9.3937   9.3945
     9.3972   9.3985

          k =-0.5000-0.5000-0.5000 (  8024 PWs)   bands (ev):

    -1.5456  -1.5449  -1.5425  -1.5418  -1.5406  -1.5388  -1.5383  -1.5358
     2.8569   2.8573   2.8585   2.8591   2.8603   2.8612   2.8614   2.8624
     2.8627   2.8633   2.8636   2.8642   2.8645   2.8649   2.8656   2.8657
     2.8666   2.8674   2.8680   2.8682   2.8690   2.8706   2.8720   2.8740
     7.1502   7.1513   7.1520   7.1525   7.1536   7.1543   7.1547   7.1549
     7.1551   7.1558   7.1570   7.1575   7.1581   7.1584   7.1587   7.1593
     7.1597   7.1604   7.1608   7.1610   7.1621   7.1627   7.1644   7.1646
    11.3564  11.3584

          k =-0.1667-0.1667 0.1667 (  8003 PWs)   bands (ev):

    -3.0431  -1.5432  -1.5413  -1.5388  -0.0586  -0.0572  -0.0559  -0.0545
    -0.0521  -0.0519   1.4113   1.4144   1.4149   1.4158   1.4171   1.4181
     1.4204   2.8670   2.8680   2.8687   2.8700   2.8715   2.8741   4.2342
     4.2346   4.2350   4.3316   4.3320   4.3325   5.6419   5.6450   5.6455
     5.6465   5.6482   5.6497   5.7599   7.0610   7.0625   7.0633   7.0643
     7.0651   7.0661   7.0753   7.0773   7.0798   7.4085   7.4089   7.4094
     8.4795   8.4806   8.4816   8.4824   8.4831   8.4845   8.8193   8.8206
     8.8220   8.8231

          k =-0.1667 0.1667-0.1667 (  8003 PWs)   bands (ev):

    -3.0431  -1.5437  -1.5411  -1.5385  -0.0590  -0.0576  -0.0554  -0.0543
    -0.0528  -0.0512   1.4123   1.4130   1.4145   1.4156   1.4176   1.4188
     1.4201   2.8673   2.8678   2.8685   2.8698   2.8720   2.8740   4.2339
     4.2346   4.2353   4.3312   4.3321   4.3329   5.6430   5.6436   5.6449
     5.6461   5.6487   5.6503   5.7599   7.0611   7.0620   7.0627   7.0645
     7.0656   7.0665   7.0749   7.0774   7.0801   7.4081   7.4089   7.4097
     8.4794   8.4802   8.4809   8.4830   8.4836   8.4846   8.8194   8.8204
     8.8216   8.8232

          k = 0.1667-0.1667-0.1667 (  8003 PWs)   bands (ev):

    -3.0431  -1.5433  -1.5417  -1.5382  -0.0590  -0.0572  -0.0558  -0.0552
    -0.0539  -0.0490   1.4124   1.4130   1.4140   1.4160   1.4170   1.4177
     1.4220   2.8663   2.8674   2.8686   2.8704   2.8714   2.8752   4.2338
     4.2346   4.2354   4.3312   4.3321   4.3329   5.6427   5.6438   5.6452
     5.6466   5.6479   5.6504   5.7599   7.0607   7.0622   7.0627   7.0644
     7.0650   7.0668   7.0755   7.0771   7.0805   7.4080   7.4089   7.4098
     8.4788   8.4805   8.4811   8.4830   8.4834   8.4848   8.8195   8.8198
     8.8219   8.8231

          k =-0.1667 0.1667 0.5000 (  7946 PWs)   bands (ev):

    -2.5418  -2.5395  -1.0462  -1.0442  -1.0439  -1.0415   0.4336   0.4346
     0.4362   0.4377   0.4393   0.4405   1.8953   1.8966   1.9014   1.9026
     1.9036   1.9049   3.3443   3.3455   3.3462   3.3474   3.3484   3.3503
     4.7058   4.7071   4.7082   4.7094   4.7727   4.7738   4.7746   4.7758
     4.8036   4.8048   6.1398   6.1419   6.1422   6.1447   6.2243   6.2254
     6.2261   6.2271   7.5413   7.5424   7.5437   7.5451   7.6425   7.6438
     7.8571   7.8587   7.8595   7.8610   8.9803   8.9812   8.9821   8.9829
     9.3409   9.3425

          k =-0.5000-0.1667 0.1667 (  7946 PWs)   bands (ev):

    -2.5419  -2.5394  -1.0468  -1.0440  -1.0433  -1.0416   0.4337   0.4356
     0.4363   0.4377   0.4386   0.4400   1.8955   1.8965   1.9017   1.9021
     1.9037   1.9050   3.3442   3.3454   3.3465   3.3476   3.3482   3.3503
     4.7062   4.7065   4.7083   4.7096   4.7725   4.7737   4.7749   4.7761
     4.8034   4.8048   6.1392   6.1421   6.1428   6.1446   6.2246   6.2253
     6.2256   6.2274   7.5408   7.5425   7.5440   7.5451   7.6424   7.6438
     7.8576   7.8581   7.8595   7.8612   8.9801   8.9813   8.9816   8.9835
     9.3402   9.3435

          k = 0.5000-0.1667-0.1667 (  7946 PWs)   bands (ev):

    -2.5419  -2.5394  -1.0471  -1.0441  -1.0432  -1.0413   0.4325   0.4351
     0.4362   0.4376   0.4388   0.4419   1.8955   1.8964   1.9012   1.9026
     1.9040   1.9048   3.3436   3.3449   3.3466   3.3476   3.3488   3.3509
     4.7058   4.7069   4.7084   4.7094   4.7718   4.7732   4.7754   4.7765
     4.8036   4.8050   6.1389   6.1420   6.1428   6.1449   6.2243   6.2255
     6.2261   6.2271   7.5410   7.5423   7.5433   7.5458   7.6424   7.6438
     7.8571   7.8586   7.8597   7.8610   8.9803   8.9812   8.9822   8.9829
     9.3404   9.3427

          k =-0.1667-0.5000 0.1667 (  7946 PWs)   bands (ev):

    -2.5409  -2.5404  -1.0461  -1.0455  -1.0428  -1.0413   0.4339   0.4346
     0.4365   0.4368   0.4391   0.4411   1.8957   1.8963   1.9027   1.9028
     1.9033   1.9037   3.3440   3.3443   3.3474   3.3479   3.3489   3.3497
     4.7073   4.7074   4.7079   4.7080   4.7724   4.7725   4.7758   4.7763
     4.8040   4.8044   6.1400   6.1405   6.1433   6.1449   6.2254   6.2255
     6.2259   6.2260   7.5415   7.5427   7.5438   7.5444   7.6429   7.6433
     7.8587   7.8588   7.8593   7.8595   8.9813   8.9814   8.9819   8.9820
     9.3409   9.3430

          k =-0.1667 0.5000-0.1667 (  7946 PWs)   bands (ev):

    -2.5409  -2.5404  -1.0464  -1.0458  -1.0422  -1.0413   0.4339   0.4347
     0.4369   0.4377   0.4386   0.4402   1.8956   1.8961   1.9027   1.9030
     1.9031   1.9039   3.3436   3.3440   3.3474   3.3479   3.3494   3.3498
     4.7072   4.7073   4.7074   4.7085   4.7720   4.7723   4.7763   4.7766
     4.8039   4.8043   6.1397   6.1403   6.1439   6.1448   6.2251   6.2255
     6.2256   6.2267   7.5418   7.5423   7.5438   7.5446   7.6429   7.6433
     7.8586   7.8588   7.8589   7.8601   8.9810   8.9812   8.9817   8.9826
     9.3412   9.3417

          k =-0.5000 0.1667 0.5000 (  7948 PWs)   bands (ev):

    -2.0435  -2.0411  -2.0387  -2.0367  -0.5520  -0.5495  -0.5471  -0.5451
     0.9236   0.9261   0.9285   0.9305   2.3771   2.3778   2.3791   2.3814
     2.3824   2.3828   2.3840   2.3859   3.8170   3.8176   3.8191   3.8213
     3.8224   3.8227   3.8240   3.8259   5.1712   5.1738   5.1764   5.1785
     5.2760   5.2769   5.2781   5.2804   5.2813   5.2820   5.2830   5.2850
     6.6685   6.6698   6.6711   6.6721   8.1007   8.1021   8.1032   8.1044
     8.4116   8.4139   8.4157   8.4177   9.3906   9.3919   9.3951   9.3959
     9.3976   9.3991

          k =-0.5000 0.5000 0.1667 (  7948 PWs)   bands (ev):

    -2.0420  -2.0409  -2.0386  -2.0384  -0.5504  -0.5493  -0.5470  -0.5469
     0.9252   0.9262   0.9286   0.9287   2.3776   2.3790   2.3794   2.3810
     2.3816   2.3832   2.3840   2.3846   3.8175   3.8189   3.8193   3.8209
     3.8215   3.8231   3.8241   3.8246   5.1729   5.1740   5.1764   5.1766
     5.2767   5.2779   5.2786   5.2799   5.2807   5.2824   5.2829   5.2837
     6.6693   6.6699   6.6711   6.6712   8.1014   8.1021   8.1034   8.1035
     8.4129   8.4138   8.4160   8.4161   9.3912   9.3925   9.3930   9.3952
     9.3964   9.3978

     the Fermi energy is     7.8469 ev

!    total energy              =   -1264.05848970 Ry
     Harris-Foulkes estimate   =   -1264.05848963 Ry
     estimated scf accuracy    <       0.00000089 Ry

     total all-electron energy =    -15540.627512 Ry

     The total energy is the sum of the following terms:

     one-electron contribution =     101.27927166 Ry
     hartree contribution      =       0.20273704 Ry
     xc contribution           =     -82.91903835 Ry
     ewald contribution        =    -172.93188273 Ry
     one-center paw contrib.   =   -1109.68641346 Ry
     smearing contrib. (-TS)   =      -0.00316386 Ry

     convergence has been achieved in   8 iterations

     Forces acting on atoms (cartesian axes, Ry/au):

     atom    1 type  1   force =     0.00002234    0.00000615    0.00001085
     atom    2 type  1   force =    -0.00009279    0.00022048    0.00007976
     atom    3 type  1   force =     0.00024136   -0.00003200   -0.00052008
     atom    4 type  1   force =    -0.00005191   -0.00016101   -0.00032462
     atom    5 type  1   force =    -0.00044106   -0.00038080    0.00033247
     atom    6 type  1   force =    -0.00013427    0.00043917    0.00000579
     atom    7 type  1   force =    -0.00014752   -0.00054843    0.00033578
     atom    8 type  1   force =     0.00006007   -0.00007344   -0.00027226
     atom    9 type  1   force =     0.00001471   -0.00005983    0.00012371
     atom   10 type  1   force =    -0.00017481   -0.00008410   -0.00064431
     atom   11 type  1   force =    -0.00021530   -0.00027288   -0.00037995
     atom   12 type  1   force =    -0.00008762    0.00003936   -0.00004664
     atom   13 type  1   force =    -0.00015945   -0.00032826   -0.00003615
     atom   14 type  1   force =    -0.00000907    0.00015472    0.00043182
     atom   15 type  1   force =    -0.00051351    0.00030211    0.00048859
     atom   16 type  1   force =     0.00062298    0.00051480    0.00010829
     atom   17 type  1   force =    -0.00043704    0.00005125    0.00009812
     atom   18 type  1   force =     0.00018509   -0.00005578    0.00046871
     atom   19 type  1   force =     0.00049441    0.00022849   -0.00006340
     atom   20 type  1   force =     0.00008961    0.00021379    0.00007826
     atom   21 type  1   force =     0.00021711   -0.00054755    0.00010093
     atom   22 type  1   force =    -0.00014645    0.00059436    0.00011953
     atom   23 type  1   force =     0.00011329   -0.00012614   -0.00023382
     atom   24 type  1   force =     0.00010443    0.00014239   -0.00011527
     atom   25 type  1   force =     0.00009173   -0.00018174    0.00033620
     atom   26 type  1   force =     0.00028994   -0.00021064   -0.00025589
     atom   27 type  1   force =    -0.00018990   -0.00001039    0.00013634
     atom   28 type  1   force =    -0.00011665    0.00024605   -0.00006096
     atom   29 type  1   force =     0.00083355   -0.00035123   -0.00012486
     atom   30 type  1   force =    -0.00027675    0.00005610    0.00025552
     atom   31 type  1   force =    -0.00009386   -0.00007426   -0.00039144
     atom   32 type  1   force =    -0.00009266    0.00028927   -0.00004101

     Total force =     0.002734     Total SCF correction =     0.000502
     SCF correction compared to forces is large: reduce conv_thr to get better values


     Computing stress (Cartesian axis) and pressure

          total   stress  (Ry/bohr**3)                   (kbar)     P=   -1.47
  -0.00000997  -0.00000000  -0.00000001         -1.47     -0.00     -0.00
  -0.00000000  -0.00000996   0.00000000         -0.00     -1.47      0.00
  -0.00000001   0.00000000  -0.00000999         -0.00      0.00     -1.47


     Writing output data file fe_scf_fcc_2.save/
 
     init_run     :      1.33s CPU      1.51s WALL (       1 calls)
     electrons    :     16.80s CPU     17.10s WALL (       1 calls)
     forces       :      0.28s CPU      0.29s WALL (       1 calls)
     stress       :      0.91s CPU      0.92s WALL (       1 calls)

     Called by init_run:
     wfcinit      :      1.09s CPU      1.13s WALL (       1 calls)
     potinit      :      0.14s CPU      0.14s WALL (       1 calls)
     hinit0       :      0.08s CPU      0.21s WALL (       1 calls)

     Called by electrons:
     c_bands      :     13.97s CPU     14.22s WALL (       9 calls)
     sum_band     :      1.91s CPU      1.95s WALL (       9 calls)
     v_of_rho     :      0.06s CPU      0.07s WALL (       9 calls)
     newd         :      0.05s CPU      0.05s WALL (       9 calls)
     PAW_pot      :      0.88s CPU      0.88s WALL (       9 calls)
     mix_rho      :      0.02s CPU      0.02s WALL (       9 calls)

     Called by c_bands:
     init_us_2    :      0.17s CPU      0.18s WALL (     294 calls)
     cegterg      :     13.38s CPU     13.62s WALL (     126 calls)

     Called by sum_band:
     sum_band:bec :      0.01s CPU      0.01s WALL (     126 calls)
     addusdens    :      0.03s CPU      0.03s WALL (       9 calls)

     Called by *egterg:
     h_psi        :      9.35s CPU      9.56s WALL (     442 calls)
     s_psi        :      0.41s CPU      0.42s WALL (     442 calls)
     g_psi        :      0.02s CPU      0.02s WALL (     302 calls)
     cdiaghg      :      2.30s CPU      2.31s WALL (     414 calls)

     Called by h_psi:
     h_psi:pot    :      9.32s CPU      9.53s WALL (     442 calls)
     h_psi:calbec :      0.88s CPU      0.92s WALL (     442 calls)
     vloc_psi     :      7.98s CPU      8.15s WALL (     442 calls)
     add_vuspsi   :      0.46s CPU      0.46s WALL (     442 calls)

     General routines
     calbec       :      1.77s CPU      1.82s WALL (     638 calls)
     fft          :      0.19s CPU      0.33s WALL (     142 calls)
     ffts         :      0.01s CPU      0.01s WALL (      18 calls)
     fftw         :      9.04s CPU      9.22s WALL (   48824 calls)
     interpolate  :      0.01s CPU      0.01s WALL (       9 calls)
 
     Parallel routines
     fft_scatt_xy :      0.51s CPU      0.53s WALL (   48984 calls)
     fft_scatt_yz :      6.65s CPU      6.86s WALL (   48984 calls)
 
     PWSCF        :    20.26s CPU        20.90s WALL

 
   This run was terminated on:   1: 6:32  12Mar2020            

=------------------------------------------------------------------------------=
   JOB DONE.
=------------------------------------------------------------------------------=
