
     Program PWSCF v.6.3 starts on 12Mar2020 at  1:10: 3 

     This program is part of the open-source Quantum ESPRESSO suite
     for quantum simulation of materials; please cite
         "P. Giannozzi et al., J. Phys.:Condens. Matter 21 395502 (2009);
         "P. Giannozzi et al., J. Phys.:Condens. Matter 29 465901 (2017);
          URL http://www.quantum-espresso.org", 
     in publications or presentations arising from this work. More details at
     http://www.quantum-espresso.org/quote

     Parallel version (MPI & OpenMP), running on      20 processor cores
     Number of MPI processes:                20
     Threads/MPI process:                     1

     MPI processes distributed on     1 nodes
     R & G space division:  proc/nbgrp/npool/nimage =      20
     Reading input from wd/kpoints/file_000143.in
Warning: card &IONS ignored
Warning: card ION_DYNAMICS = 'BFGS', ignored
Warning: card / ignored
Warning: card &CELL ignored
Warning: card CELL_DYNAMICS = 'BFGS', ignored
Warning: card CELL_FACTOR = 2.0, ignored
Warning: card PRESS = 0.0, ignored
Warning: card / ignored

     Current dimensions of program PWSCF are:
     Max number of different atomic species (ntypx) = 10
     Max number of k-points (npk) =  40000
     Max angular momentum in pseudopotentials (lmaxx) =  3
     Message from routine read_upf::
     Pseudo file /rds/homes/b/bxp912/pp/Al.pbe-nl-kjpaw_psl.1.0.0.UPF has been successfully fixed on the fly.
To avoid this message in the future you can permanently fix 
 your pseudo files following instructions given in: 
https://gitlab.com/QEF/q-e/blob/master/upftools/how_to_fix_upf.md
               file Al.pbe-nl-kjpaw_psl.1.0.0.UPF: wavefunction(s)  3S 3P renormalized

     Subspace diagonalization in iterative solution of the eigenvalue problem:
     a serial algorithm will be used

 
     Parallelization info
     --------------------
     sticks:   dense  smooth     PW     G-vecs:    dense   smooth      PW
     Min          96      96     27                 3225     3198     487
     Max          98      97     28                 3241     3201     490
     Sum        1941    1933    553                64589    63989    9771
 


     bravais-lattice index     =            0
     lattice parameter (alat)  =      15.2712  a.u.
     unit-cell volume          =    3561.3897 (a.u.)^3
     number of atoms/cell      =           32
     number of atomic types    =            1
     number of electrons       =        96.00
     number of Kohn-Sham states=           58
     kinetic-energy cutoff     =      26.0000  Ry
     charge density cutoff     =     105.0000  Ry
     convergence threshold     =      1.0E-06
     mixing beta               =       0.1000
     number of iterations used =           10  TF        mixing
     Exchange-correlation      = SLA PW PBX PBC ( 1  4  3  4 0 0)

     celldm(1)=  15.271200  celldm(2)=   0.000000  celldm(3)=   0.000000
     celldm(4)=   0.000000  celldm(5)=   0.000000  celldm(6)=   0.000000

     crystal axes: (cart. coord. in units of alat)
               a(1) = (   1.000000   0.000000   0.000000 )  
               a(2) = (   0.000000   1.000000   0.000000 )  
               a(3) = (   0.000000   0.000000   1.000000 )  

     reciprocal axes: (cart. coord. in units 2 pi/alat)
               b(1) = (  1.000000  0.000000  0.000000 )  
               b(2) = (  0.000000  1.000000  0.000000 )  
               b(3) = (  0.000000  0.000000  1.000000 )  


     PseudoPot. # 1 for Al read from file:
     /rds/homes/b/bxp912/pp/Al.pbe-nl-kjpaw_psl.1.0.0.UPF
     MD5 check sum: 339dbea23cf3ab9a065ad45c0f9085d7
     Pseudo is Projector augmented-wave + core cor, Zval =  3.0
     Generated using "atomic" code by A. Dal Corso v.5.1
     Shape of augmentation charge: PSQ
     Using radial grid of 1135 points,  4 beta functions with: 
                l(1) =   0
                l(2) =   0
                l(3) =   1
                l(4) =   1
     Q(r) pseudized with 0 coefficients 


     atomic species   valence    mass     pseudopotential
        Al             3.00    26.98200     Al( 1.00)

     No symmetry found



   Cartesian axes

     site n.     atom                  positions (alat units)
         1           Al  tau(   1) = (  -0.0000327   0.0000095   0.0000680  )
         2           Al  tau(   2) = (   0.2500796   0.2498100   0.0000703  )
         3           Al  tau(   3) = (   0.2499071   0.0000305   0.2502955  )
         4           Al  tau(   4) = (  -0.0000200   0.2502187   0.2501837  )
         5           Al  tau(   5) = (   0.0002558   0.0002521   0.4998810  )
         6           Al  tau(   6) = (   0.2501194   0.2498326   0.5000036  )
         7           Al  tau(   7) = (   0.2500278   0.0001539   0.7498880  )
         8           Al  tau(   8) = (   0.0000549   0.2501136   0.7502101  )
         9           Al  tau(   9) = (   0.0002375   0.5001078  -0.0000154  )
        10           Al  tau(  10) = (   0.2501396   0.7501762   0.0004054  )
        11           Al  tau(  11) = (   0.2501891   0.5001088   0.2502510  )
        12           Al  tau(  12) = (   0.0000383   0.7500455   0.2500253  )
        13           Al  tau(  13) = (   0.0001102   0.5001562   0.5000990  )
        14           Al  tau(  14) = (   0.2499640   0.7500632   0.4998706  )
        15           Al  tau(  15) = (   0.2503366   0.4997894   0.7496960  )
        16           Al  tau(  16) = (  -0.0003280   0.7497055   0.7499931  )
        17           Al  tau(  17) = (   0.5002037  -0.0001004  -0.0000387  )
        18           Al  tau(  18) = (   0.7499123   0.2500941  -0.0002332  )
        19           Al  tau(  19) = (   0.7496354  -0.0000959   0.2500771  )
        20           Al  tau(  20) = (   0.4999751   0.2499614   0.2498317  )
        21           Al  tau(  21) = (   0.4999211   0.0002929   0.4999726  )
        22           Al  tau(  22) = (   0.7500684   0.2496958   0.4999523  )
        23           Al  tau(  23) = (   0.7500357  -0.0000687   0.7500257  )
        24           Al  tau(  24) = (   0.5000114   0.2498864   0.7499948  )
        25           Al  tau(  25) = (   0.4998526   0.5001156  -0.0002192  )
        26           Al  tau(  26) = (   0.7497723   0.7500978   0.0002736  )
        27           Al  tau(  27) = (   0.7501007   0.4998018   0.2499462  )
        28           Al  tau(  28) = (   0.5000878   0.7497908   0.2502093  )
        29           Al  tau(  29) = (   0.4996761   0.5001027   0.5000404  )
        30           Al  tau(  30) = (   0.7501658   0.7499872   0.4998547  )
        31           Al  tau(  31) = (   0.7499472   0.5000095   0.7501393  )
        32           Al  tau(  32) = (   0.5000142   0.7499486   0.7499177  )

     number of k points=    63  Marzari-Vanderbilt smearing, width (Ry)=  0.0020
                       cart. coord. in units 2pi/alat
        k(    1) = (   0.1000000   0.1000000   0.1000000), wk =   0.0320000
        k(    2) = (   0.1000000   0.1000000   0.3000000), wk =   0.0320000
        k(    3) = (   0.1000000   0.1000000  -0.5000000), wk =   0.0320000
        k(    4) = (   0.1000000   0.3000000   0.3000000), wk =   0.0320000
        k(    5) = (   0.1000000   0.3000000  -0.5000000), wk =   0.0320000
        k(    6) = (   0.1000000  -0.5000000  -0.5000000), wk =   0.0320000
        k(    7) = (   0.3000000   0.3000000   0.3000000), wk =   0.0320000
        k(    8) = (   0.3000000   0.3000000  -0.5000000), wk =   0.0320000
        k(    9) = (   0.3000000  -0.5000000  -0.5000000), wk =   0.0320000
        k(   10) = (  -0.5000000  -0.5000000  -0.5000000), wk =   0.0160000
        k(   11) = (  -0.1000000  -0.1000000   0.1000000), wk =   0.0320000
        k(   12) = (  -0.1000000   0.1000000  -0.1000000), wk =   0.0320000
        k(   13) = (   0.1000000  -0.1000000  -0.1000000), wk =   0.0320000
        k(   14) = (  -0.1000000  -0.1000000   0.3000000), wk =   0.0320000
        k(   15) = (  -0.1000000   0.1000000  -0.3000000), wk =   0.0320000
        k(   16) = (   0.1000000  -0.1000000  -0.3000000), wk =   0.0320000
        k(   17) = (   0.3000000  -0.1000000   0.1000000), wk =   0.0320000
        k(   18) = (  -0.3000000  -0.1000000  -0.1000000), wk =   0.0320000
        k(   19) = (   0.3000000   0.1000000  -0.1000000), wk =   0.0320000
        k(   20) = (  -0.3000000   0.1000000   0.1000000), wk =   0.0320000
        k(   21) = (  -0.1000000   0.3000000   0.1000000), wk =   0.0320000
        k(   22) = (  -0.1000000  -0.3000000  -0.1000000), wk =   0.0320000
        k(   23) = (   0.1000000   0.3000000  -0.1000000), wk =   0.0320000
        k(   24) = (   0.1000000  -0.3000000   0.1000000), wk =   0.0320000
        k(   25) = (  -0.1000000   0.1000000   0.5000000), wk =   0.0320000
        k(   26) = (  -0.5000000  -0.1000000   0.1000000), wk =   0.0320000
        k(   27) = (   0.5000000  -0.1000000  -0.1000000), wk =   0.0320000
        k(   28) = (  -0.1000000  -0.5000000   0.1000000), wk =   0.0320000
        k(   29) = (  -0.1000000   0.5000000  -0.1000000), wk =   0.0320000
        k(   30) = (  -0.1000000  -0.3000000   0.3000000), wk =   0.0320000
        k(   31) = (  -0.1000000   0.3000000  -0.3000000), wk =   0.0320000
        k(   32) = (   0.1000000  -0.3000000  -0.3000000), wk =   0.0320000
        k(   33) = (   0.3000000   0.1000000  -0.3000000), wk =   0.0320000
        k(   34) = (  -0.3000000  -0.1000000  -0.3000000), wk =   0.0320000
        k(   35) = (   0.3000000  -0.1000000   0.3000000), wk =   0.0320000
        k(   36) = (  -0.3000000   0.1000000   0.3000000), wk =   0.0320000
        k(   37) = (   0.3000000  -0.3000000   0.1000000), wk =   0.0320000
        k(   38) = (  -0.3000000  -0.3000000  -0.1000000), wk =   0.0320000
        k(   39) = (   0.3000000   0.3000000  -0.1000000), wk =   0.0320000
        k(   40) = (  -0.3000000   0.3000000   0.1000000), wk =   0.0320000
        k(   41) = (  -0.1000000   0.3000000   0.5000000), wk =   0.0320000
        k(   42) = (   0.3000000   0.1000000   0.5000000), wk =   0.0320000
        k(   43) = (   0.3000000  -0.1000000  -0.5000000), wk =   0.0320000
        k(   44) = (  -0.5000000  -0.3000000   0.1000000), wk =   0.0320000
        k(   45) = (   0.5000000  -0.3000000  -0.1000000), wk =   0.0320000
        k(   46) = (  -0.1000000  -0.5000000   0.3000000), wk =   0.0320000
        k(   47) = (  -0.1000000   0.5000000  -0.3000000), wk =   0.0320000
        k(   48) = (   0.3000000  -0.5000000   0.1000000), wk =   0.0320000
        k(   49) = (   0.3000000   0.5000000  -0.1000000), wk =   0.0320000
        k(   50) = (  -0.5000000   0.1000000   0.3000000), wk =   0.0320000
        k(   51) = (   0.5000000  -0.1000000   0.3000000), wk =   0.0320000
        k(   52) = (  -0.5000000   0.1000000   0.5000000), wk =   0.0320000
        k(   53) = (  -0.5000000   0.5000000   0.1000000), wk =   0.0320000
        k(   54) = (  -0.3000000  -0.3000000   0.3000000), wk =   0.0320000
        k(   55) = (  -0.3000000   0.3000000  -0.3000000), wk =   0.0320000
        k(   56) = (   0.3000000  -0.3000000  -0.3000000), wk =   0.0320000
        k(   57) = (  -0.3000000   0.3000000   0.5000000), wk =   0.0320000
        k(   58) = (  -0.5000000  -0.3000000   0.3000000), wk =   0.0320000
        k(   59) = (   0.5000000  -0.3000000  -0.3000000), wk =   0.0320000
        k(   60) = (  -0.3000000  -0.5000000   0.3000000), wk =   0.0320000
        k(   61) = (  -0.3000000   0.5000000  -0.3000000), wk =   0.0320000
        k(   62) = (  -0.5000000   0.3000000   0.5000000), wk =   0.0320000
        k(   63) = (  -0.5000000   0.5000000   0.3000000), wk =   0.0320000

     Dense  grid:    64589 G-vectors     FFT dimensions: (  50,  50,  50)

     Smooth grid:    63989 G-vectors     FFT dimensions: (  50,  50,  50)

     Estimated max dynamical RAM per process >      33.64 MB

     Estimated total dynamical RAM >     672.79 MB

     Initial potential from superposition of free atoms

     starting charge   95.92671, renormalised to   96.00000
     Starting wfcs are  128 randomized atomic wfcs
     Checking if some PAW data can be deallocated... 

     total cpu time spent up to now is        6.2 secs

     Self-consistent Calculation

     iteration #  1     ecut=    26.00 Ry     beta= 0.10
     Davidson diagonalization with overlap
     ethr =  1.00E-02,  avg # of iterations =  3.0

     Threshold (ethr) on eigenvalues was too large:
     Diagonalizing with lowered threshold

     Davidson diagonalization with overlap
     ethr =  1.93E-04,  avg # of iterations =  3.5

     total cpu time spent up to now is       25.8 secs

     total energy              =   -1264.12672540 Ry
     Harris-Foulkes estimate   =   -1264.13304792 Ry
     estimated scf accuracy    <       0.18042465 Ry

     iteration #  2     ecut=    26.00 Ry     beta= 0.10
     Davidson diagonalization with overlap
     ethr =  1.88E-04,  avg # of iterations =  1.0

     total cpu time spent up to now is       31.9 secs

     total energy              =   -1264.07889989 Ry
     Harris-Foulkes estimate   =   -1264.12758147 Ry
     estimated scf accuracy    <       0.15654292 Ry

     iteration #  3     ecut=    26.00 Ry     beta= 0.10
     Davidson diagonalization with overlap
     ethr =  1.63E-04,  avg # of iterations =  1.0

     total cpu time spent up to now is       37.9 secs

     total energy              =   -1264.08173484 Ry
     Harris-Foulkes estimate   =   -1264.08190036 Ry
     estimated scf accuracy    <       0.00061522 Ry

     iteration #  4     ecut=    26.00 Ry     beta= 0.10
     Davidson diagonalization with overlap
     c_bands:  1 eigenvalues not converged
     ethr =  6.41E-07,  avg # of iterations =  5.2

     total cpu time spent up to now is       52.2 secs

     total energy              =   -1264.08237989 Ry
     Harris-Foulkes estimate   =   -1264.08253310 Ry
     estimated scf accuracy    <       0.00038476 Ry

     iteration #  5     ecut=    26.00 Ry     beta= 0.10
     Davidson diagonalization with overlap
     ethr =  4.01E-07,  avg # of iterations =  1.1

     total cpu time spent up to now is       58.3 secs

     total energy              =   -1264.08218173 Ry
     Harris-Foulkes estimate   =   -1264.08239265 Ry
     estimated scf accuracy    <       0.00024420 Ry

     iteration #  6     ecut=    26.00 Ry     beta= 0.10
     Davidson diagonalization with overlap
     ethr =  2.54E-07,  avg # of iterations =  2.0

     total cpu time spent up to now is       66.9 secs

     total energy              =   -1264.08224458 Ry
     Harris-Foulkes estimate   =   -1264.08224189 Ry
     estimated scf accuracy    <       0.00001097 Ry

     iteration #  7     ecut=    26.00 Ry     beta= 0.10
     Davidson diagonalization with overlap
     ethr =  1.14E-08,  avg # of iterations =  2.6

     total cpu time spent up to now is       74.5 secs

     total energy              =   -1264.08223761 Ry
     Harris-Foulkes estimate   =   -1264.08224551 Ry
     estimated scf accuracy    <       0.00000586 Ry

     iteration #  8     ecut=    26.00 Ry     beta= 0.10
     Davidson diagonalization with overlap
     ethr =  6.10E-09,  avg # of iterations =  2.0

     total cpu time spent up to now is       82.6 secs

     End of self-consistent calculation

          k = 0.1000 0.1000 0.1000 (  7986 PWs)   bands (ev):

    -3.1648  -1.3653  -1.3631  -1.3604  -0.4731  -0.4709  -0.4682   0.4144
     0.4166   0.4193   1.2952   1.2955   1.2980   1.2986   1.2998   1.3011
     2.1713   2.1735   2.1747   2.1764   3.0368   3.0376   3.0383   3.9326
     3.9333   3.9341   4.6178   4.6184   4.6190   4.7877   6.2950   6.2953
     6.2982   6.2988   6.2999   6.3011   6.8020   6.8026   6.8033   7.1399
     7.1404   7.1423   7.1436   7.1448   7.1453   7.9950   7.9972   7.9999
     8.4428   8.4434   8.4451   8.4460   8.4477   8.4492   8.8353   8.8359
     8.8370   8.8382

          k = 0.1000 0.1000 0.3000 (  7974 PWs)   bands (ev):

    -2.9836  -2.0809  -1.1845  -1.1834  -0.2947  -0.2937  -0.2922  -0.2899
     0.5909   0.5919   0.5931   0.5957   1.4720   1.4740   1.4760   2.3455
     2.3466   2.3474   2.3488   2.3511   3.1913   3.2097   3.2156   3.2166
     4.1057   4.7871   4.7876   4.9073   4.9084   4.9578   4.9585   5.6296
     5.6302   5.7470   5.7481   5.8150   6.4907   6.4918   6.6328   6.9733
     6.9739   7.3202   7.3212   7.3248   7.3260   7.4804   7.4813   7.7587
     7.7597   8.1643   8.1649   8.2333   8.2334   8.3266   8.5431   8.7162
     8.7169   9.4678

          k = 0.1000 0.1000-0.5000 (  7978 PWs)   bands (ev):

    -2.6232  -2.6205  -0.8286  -0.8279  -0.8260  -0.8244   0.0604   0.0610
     0.0630   0.0645   0.9452   0.9480   1.8168   1.8180   1.8229   1.8235
     1.8257   1.8265   2.6948   2.6976   3.5553   3.5565   3.5565   3.5576
     4.4148   4.4160   4.4160   4.4171   5.1232   5.1236   5.1260   5.1267
     5.2944   5.2956   6.1483   6.1488   6.1495   6.1504   6.8185   6.8190
     6.8212   6.8228   7.0005   7.0017   7.3084   7.3090   7.3111   7.3120
     7.6577   7.6582   7.6603   7.6619   9.0735   9.0742   9.0759   9.0776
     9.3500   9.3514

          k = 0.1000 0.3000 0.3000 (  7962 PWs)   bands (ev):

    -2.8026  -1.9025  -1.8996  -1.0059  -1.0045  -0.1170  -0.1153  -0.1125
     0.7662   0.7678   0.7684   0.7706   0.7733   1.6466   1.6475   1.6504
     2.5198   2.5228   3.3634   3.3646   3.3800   3.3812   3.3871   3.3898
     4.2230   4.2260   4.2487   4.2783   4.2795   4.9561   5.0666   5.0678
     5.7912   5.7945   5.9510   5.9540   5.9609   5.9621   5.9842   6.6526
     6.7670   6.7691   6.8004   6.8034   6.8372   7.1393   8.0693   8.0713
     8.3159   8.3193   8.4921   8.4938   8.7060   8.7074   8.9131   9.1690
     9.1709   9.3273

          k = 0.1000 0.3000-0.5000 (  7974 PWs)   bands (ev):

    -2.4427  -2.4399  -1.5434  -1.5406  -0.6498  -0.6470   0.2360   0.2392
     0.2411   0.2425   1.1180   1.1212   1.1226   1.1240   1.9919   1.9930
     2.8628   2.8641   2.8674   2.8702   3.7075   3.7103   3.7231   3.7255
     3.7277   3.7291   4.5756   4.5766   4.6182   4.6194   5.2913   5.2942
     5.4275   5.4286   5.4518   5.4544   5.4654   5.4667   6.1554   6.1582
     6.2904   6.2933   7.1683   7.1696   7.4143   7.4167   8.0164   8.0177
     8.0795   8.0805   8.4002   8.4029   8.6623   8.6654   9.0011   9.0037
     9.5474   9.5489

          k = 0.1000-0.5000-0.5000 (  7944 PWs)   bands (ev):

    -2.0832  -2.0822  -2.0798  -2.0784  -0.2948  -0.2937  -0.2913  -0.2899
     0.5909   0.5920   0.5944   0.5958   2.3376   2.3393   2.3397   2.3408
     2.3415   2.3437   2.3447   2.3453   4.0584   4.0601   4.0607   4.0619
     4.0623   4.0646   4.0656   4.0663   4.9591   4.9605   4.9610   4.9620
     4.9631   4.9649   4.9661   4.9666   5.6218   5.6229   5.6255   5.6270
     6.6146   6.6151   6.6165   6.6172   7.9083   7.9091   7.9110   7.9122
     8.3449   8.3455   8.3467   8.3475   9.1890   9.1896   9.1908   9.1916
     9.8220   9.8251

          k = 0.3000 0.3000 0.3000 (  7997 PWs)   bands (ev):

    -2.6219  -1.7238  -1.7216  -1.7189  -0.8290  -0.8268  -0.8241   0.0628
     0.9421   0.9443   0.9470   1.8200   1.8202   1.8228   1.8234   1.8246
     1.8259   2.6941   2.6949   2.6956   3.5358   3.5366   3.5373   4.3917
     4.3919   4.3946   4.3952   4.3964   4.3977   4.4070   4.4093   4.4120
     5.2800   5.2822   5.2850   5.2989   5.2997   5.3005   6.9592   6.9597
     6.9612   6.9626   6.9636   6.9642   7.8132   7.8137   7.8152   7.8165
     7.8176   7.8181   7.8542   8.8310   8.8321   8.8333   9.5344   9.5350
     9.5355   9.7489

          k = 0.3000 0.3000-0.5000 (  7950 PWs)   bands (ev):

    -2.2624  -2.2596  -1.3647  -1.3640  -1.3621  -1.3605  -0.4716  -0.4688
     1.2946   1.2953   1.2972   1.2988   2.1663   2.1675   2.1709   2.1716
     2.1737   2.1745   3.0359   3.0371   3.0372   3.0382   3.8791   3.8796
     3.8817   3.8826   3.8905   3.8915   4.7241   4.7248   4.7267   4.7283
     4.7942   4.7968   5.6428   5.6440   5.6441   5.6451   6.4866   6.4871
     6.4878   6.4887   7.3037   7.3043   7.3063   7.3079   8.1137   8.1143
     8.1148   8.1158   8.9858   8.9870   8.9873   8.9883   9.0278   9.0291
     9.2735   9.2742

          k = 0.3000-0.5000-0.5000 (  7960 PWs)   bands (ev):

    -1.9034  -1.9023  -1.9000  -1.8985  -1.0074  -1.0064  -1.0040  -1.0026
     1.6452   1.6463   1.6487   1.6501   2.5118   2.5135   2.5140   2.5150
     2.5158   2.5179   2.5189   2.5196   3.3785   3.3802   3.3807   3.3818
     3.3825   3.3847   3.3857   3.3863   4.2206   4.2218   4.2242   4.2257
     5.9719   5.9735   5.9740   5.9751   5.9760   5.9781   5.9792   5.9798
     6.8107   6.8112   6.8124   6.8132   7.6665   7.6671   7.6682   7.6690
     8.4713   8.4732   8.4738   8.4750   8.4758   8.4781   8.4792   8.4801
     9.5961   9.5985

          k =-0.5000-0.5000-0.5000 (  8024 PWs)   bands (ev):

    -1.5468  -1.5460  -1.5430  -1.5426  -1.5417  -1.5398  -1.5394  -1.5367
     2.8557   2.8561   2.8575   2.8581   2.8593   2.8601   2.8604   2.8615
     2.8618   2.8624   2.8627   2.8631   2.8637   2.8641   2.8646   2.8647
     2.8655   2.8665   2.8669   2.8673   2.8683   2.8696   2.8711   2.8731
     7.1492   7.1501   7.1509   7.1514   7.1527   7.1532   7.1538   7.1539
     7.1540   7.1547   7.1558   7.1564   7.1570   7.1573   7.1575   7.1583
     7.1587   7.1594   7.1597   7.1600   7.1608   7.1615   7.1633   7.1635
    11.3551  11.3570

          k =-0.1000-0.1000 0.1000 (  7986 PWs)   bands (ev):

    -3.1648  -1.3648  -1.3631  -1.3608  -0.4726  -0.4709  -0.4687   0.4149
     0.4166   0.4188   1.2942   1.2969   1.2973   1.2985   1.2998   1.3014
     2.1719   2.1736   2.1746   2.1759   3.0371   3.0376   3.0380   3.9329
     3.9333   3.9338   4.6180   4.6184   4.6188   4.7877   6.2939   6.2969
     6.2977   6.2983   6.3000   6.3014   6.8022   6.8026   6.8030   7.1399
     7.1417   7.1424   7.1430   7.1441   7.1452   7.9954   7.9972   7.9994
     8.4425   8.4437   8.4451   8.4464   8.4474   8.4489   8.8358   8.8360
     8.8375   8.8380

          k =-0.1000 0.1000-0.1000 (  7986 PWs)   bands (ev):

    -3.1648  -1.3652  -1.3629  -1.3606  -0.4730  -0.4707  -0.4684   0.4144
     0.4168   0.4191   1.2952   1.2957   1.2969   1.2980   1.3004   1.3020
     2.1714   2.1738   2.1745   2.1762   3.0368   3.0376   3.0384   3.9325
     3.9333   3.9342   4.6177   4.6184   4.6191   4.7877   6.2952   6.2957
     6.2968   6.2980   6.3005   6.3020   6.8019   6.8026   6.8033   7.1402
     7.1410   7.1416   7.1435   7.1446   7.1454   7.9950   7.9973   7.9997
     8.4425   8.4435   8.4448   8.4463   8.4477   8.4491   8.8347   8.8354
     8.8369   8.8383

          k = 0.1000-0.1000-0.1000 (  7986 PWs)   bands (ev):

    -3.1648  -1.3649  -1.3635  -1.3603  -0.4727  -0.4713  -0.4681   0.4147
     0.4162   0.4194   1.2949   1.2959   1.2974   1.2983   1.2996   1.3019
     2.1717   2.1731   2.1746   2.1765   3.0367   3.0376   3.0385   3.9324
     3.9333   3.9343   4.6177   4.6184   4.6192   4.7877   6.2948   6.2961
     6.2973   6.2984   6.2995   6.3022   6.8018   6.8026   6.8034   7.1397
     7.1413   7.1418   7.1436   7.1441   7.1458   7.9953   7.9968   8.0000
     8.4430   8.4433   8.4446   8.4461   8.4474   8.4495   8.8340   8.8362
     8.8371   8.8385

          k =-0.1000-0.1000 0.3000 (  7974 PWs)   bands (ev):

    -2.9836  -2.0809  -1.1845  -1.1834  -0.2945  -0.2938  -0.2917  -0.2906
     0.5905   0.5924   0.5935   0.5952   1.4720   1.4738   1.4762   2.3455
     2.3460   2.3478   2.3489   2.3512   3.1914   3.2094   3.2155   3.2168
     4.1056   4.7871   4.7877   4.9073   4.9085   4.9578   4.9585   5.6296
     5.6302   5.7470   5.7481   5.8150   6.4907   6.4918   6.6328   6.9733
     6.9739   7.3202   7.3210   7.3248   7.3262   7.4805   7.4813   7.7587
     7.7597   8.1643   8.1649   8.2333   8.2334   8.3266   8.5431   8.7162
     8.7169   9.4675

          k =-0.1000 0.1000-0.3000 (  7974 PWs)   bands (ev):

    -2.9836  -2.0809  -1.1848  -1.1830  -0.2949  -0.2925  -0.2922  -0.2909
     0.5901   0.5920   0.5940   0.5954   1.4724   1.4741   1.4755   2.3454
     2.3462   2.3476   2.3496   2.3507   3.1913   3.2093   3.2150   3.2174
     4.1057   4.7868   4.7879   4.9069   4.9089   4.9575   4.9589   5.6293
     5.6305   5.7466   5.7485   5.8150   6.4903   6.4922   6.6328   6.9730
     6.9742   7.3205   7.3215   7.3241   7.3260   7.4800   7.4817   7.7582
     7.7602   8.1640   8.1652   8.2332   8.2334   8.3266   8.5431   8.7159
     8.7172   9.4669

          k = 0.1000-0.1000-0.3000 (  7974 PWs)   bands (ev):

    -2.9836  -2.0809  -1.1848  -1.1830  -0.2947  -0.2945  -0.2920  -0.2895
     0.5910   0.5925   0.5934   0.5945   1.4717   1.4734   1.4769   2.3458
     2.3461   2.3476   2.3486   2.3513   3.1913   3.2098   3.2151   3.2169
     4.1056   4.7868   4.7879   4.9069   4.9089   4.9575   4.9589   5.6293
     5.6305   5.7466   5.7485   5.8150   6.4903   6.4922   6.6328   6.9730
     6.9742   7.3192   7.3214   7.3254   7.3263   7.4800   7.4817   7.7582
     7.7602   8.1640   8.1652   8.2332   8.2334   8.3266   8.5431   8.7159
     8.7172   9.4670

          k = 0.3000-0.1000 0.1000 (  7974 PWs)   bands (ev):

    -2.9836  -2.0809  -1.1849  -1.1829  -0.2940  -0.2935  -0.2930  -0.2901
     0.5893   0.5933   0.5940   0.5949   1.4727   1.4740   1.4753   2.3452
     2.3463   2.3475   2.3498   2.3506   3.1914   3.2090   3.2156   3.2172
     4.1056   4.7871   4.7876   4.9068   4.9090   4.9579   4.9585   5.6296
     5.6301   5.7465   5.7486   5.8150   6.4902   6.4923   6.6329   6.9734
     6.9739   7.3204   7.3217   7.3242   7.3260   7.4805   7.4812   7.7588
     7.7596   8.1639   8.1652   8.2333   8.2334   8.3266   8.5431   8.7159
     8.7172   9.4678

          k =-0.3000-0.1000-0.1000 (  7974 PWs)   bands (ev):

    -2.9836  -2.0809  -1.1854  -1.1825  -0.2950  -0.2932  -0.2926  -0.2897
     0.5893   0.5919   0.5944   0.5960   1.4728   1.4741   1.4751   2.3445
     2.3461   2.3486   2.3495   2.3507   3.1913   3.2088   3.2150   3.2180
     4.1057   4.7869   4.7878   4.9063   4.9095   4.9576   4.9588   5.6294
     5.6304   5.7460   5.7491   5.8150   6.4898   6.4927   6.6329   6.9731
     6.9742   7.3201   7.3221   7.3237   7.3263   7.4802   7.4816   7.7583
     7.7600   8.1637   8.1655   8.2333   8.2334   8.3266   8.5431   8.7156
     8.7175   9.4662

          k = 0.3000 0.1000-0.1000 (  7974 PWs)   bands (ev):

    -2.9836  -2.0809  -1.1850  -1.1829  -0.2944  -0.2933  -0.2922  -0.2906
     0.5900   0.5930   0.5936   0.5949   1.4726   1.4740   1.4754   2.3453
     2.3467   2.3478   2.3491   2.3506   3.1914   3.2092   3.2154   3.2171
     4.1056   4.7871   4.7876   4.9068   4.9090   4.9579   4.9585   5.6296
     5.6301   5.7465   5.7486   5.8150   6.4902   6.4923   6.6328   6.9734
     6.9739   7.3204   7.3215   7.3242   7.3260   7.4805   7.4812   7.7588
     7.7596   8.1639   8.1652   8.2333   8.2334   8.3266   8.5431   8.7159
     8.7172   9.4681

          k =-0.3000 0.1000 0.1000 (  7974 PWs)   bands (ev):

    -2.9836  -2.0809  -1.1854  -1.1825  -0.2947  -0.2939  -0.2924  -0.2896
     0.5903   0.5918   0.5935   0.5960   1.4725   1.4736   1.4759   2.3447
     2.3467   2.3482   2.3487   2.3512   3.1914   3.2094   3.2147   3.2177
     4.1057   4.7869   4.7879   4.9063   4.9095   4.9576   4.9588   5.6294
     5.6304   5.7460   5.7491   5.8150   6.4898   6.4927   6.6329   6.9731
     6.9742   7.3195   7.3221   7.3242   7.3264   7.4801   7.4816   7.7583
     7.7601   8.1637   8.1655   8.2333   8.2334   8.3266   8.5431   8.7156
     8.7176   9.4661

          k =-0.1000 0.3000 0.1000 (  7974 PWs)   bands (ev):

    -2.9836  -2.0809  -1.1855  -1.1823  -0.2954  -0.2934  -0.2931  -0.2887
     0.5903   0.5917   0.5942   0.5954   1.4717   1.4737   1.4766   2.3441
     2.3467   2.3483   2.3493   2.3509   3.1913   3.2095   3.2146   3.2177
     4.1057   4.7873   4.7874   4.9062   4.9096   4.9581   4.9582   5.6299
     5.6299   5.7458   5.7492   5.8150   6.4896   6.4929   6.6328   6.9736
     6.9737   7.3197   7.3207   7.3248   7.3270   7.4808   7.4809   7.7591
     7.7593   8.1636   8.1656   8.2333   8.2333   8.3266   8.5431   8.7155
     8.7176   9.4659

          k =-0.1000-0.3000-0.1000 (  7974 PWs)   bands (ev):

    -2.9836  -2.0809  -1.1858  -1.1820  -0.2955  -0.2940  -0.2927  -0.2883
     0.5898   0.5924   0.5940   0.5954   1.4717   1.4740   1.4763   2.3446
     2.3461   2.3482   2.3497   2.3509   3.1913   3.2094   3.2145   3.2179
     4.1056   4.7871   4.7876   4.9059   4.9099   4.9578   4.9585   5.6296
     5.6302   5.7455   5.7496   5.8150   6.4893   6.4932   6.6328   6.9734
     6.9739   7.3195   7.3214   7.3237   7.3276   7.4805   7.4813   7.7587
     7.7597   8.1634   8.1658   8.2333   8.2334   8.3266   8.5431   8.7153
     8.7178   9.4657

          k = 0.1000 0.3000-0.1000 (  7974 PWs)   bands (ev):

    -2.9836  -2.0809  -1.1855  -1.1823  -0.2954  -0.2934  -0.2916  -0.2901
     0.5901   0.5922   0.5936   0.5957   1.4725   1.4738   1.4758   2.3446
     2.3467   2.3481   2.3491   2.3509   3.1914   3.2091   3.2145   3.2181
     4.1057   4.7873   4.7874   4.9062   4.9096   4.9581   4.9582   5.6298
     5.6299   5.7458   5.7492   5.8150   6.4896   6.4929   6.6329   6.9736
     6.9737   7.3199   7.3217   7.3238   7.3268   7.4808   7.4809   7.7591
     7.7593   8.1636   8.1656   8.2333   8.2333   8.3266   8.5431   8.7155
     8.7176   9.4660

          k = 0.1000-0.3000 0.1000 (  7974 PWs)   bands (ev):

    -2.9836  -2.0809  -1.1858  -1.1820  -0.2961  -0.2934  -0.2916  -0.2895
     0.5895   0.5923   0.5937   0.5961   1.4722   1.4738   1.4760   2.3445
     2.3460   2.3481   2.3494   2.3514   3.1913   3.2092   3.2146   3.2180
     4.1057   4.7871   4.7876   4.9059   4.9099   4.9578   4.9585   5.6296
     5.6301   5.7455   5.7496   5.8150   6.4893   6.4932   6.6329   6.9734
     6.9739   7.3195   7.3219   7.3237   7.3271   7.4805   7.4813   7.7587
     7.7597   8.1634   8.1657   8.2333   8.2334   8.3266   8.5431   8.7153
     8.7178   9.4657

          k =-0.1000 0.1000 0.5000 (  7978 PWs)   bands (ev):

    -2.6232  -2.6205  -0.8291  -0.8273  -0.8263  -0.8241   0.0598   0.0616
     0.0626   0.0649   0.9452   0.9480   1.8165   1.8178   1.8228   1.8239
     1.8254   1.8268   2.6948   2.6976   3.5550   3.5561   3.5568   3.5580
     4.4145   4.4156   4.4164   4.4175   5.1228   5.1240   5.1258   5.1269
     5.2944   5.2956   6.1478   6.1490   6.1496   6.1507   6.8179   6.8197
     6.8208   6.8231   7.0005   7.0017   7.3080   7.3093   7.3109   7.3122
     7.6574   7.6586   7.6603   7.6618   9.0733   9.0744   9.0759   9.0775
     9.3496   9.3508

          k =-0.5000-0.1000 0.1000 (  7978 PWs)   bands (ev):

    -2.6234  -2.6204  -0.8297  -0.8271  -0.8257  -0.8242   0.0592   0.0618
     0.0632   0.0647   0.9451   0.9481   1.8167   1.8177   1.8230   1.8235
     1.8256   1.8269   2.6947   2.6977   3.5548   3.5561   3.5569   3.5581
     4.4143   4.4156   4.4164   4.4177   5.1232   5.1234   5.1258   5.1270
     5.2943   5.2956   6.1482   6.1488   6.1491   6.1509   6.8172   6.8199
     6.8214   6.8229   7.0004   7.0018   7.3083   7.3089   7.3109   7.3124
     7.6569   7.6587   7.6607   7.6617   9.0728   9.0745   9.0764   9.0775
     9.3499   9.3513

          k = 0.5000-0.1000-0.1000 (  7978 PWs)   bands (ev):

    -2.6234  -2.6204  -0.8300  -0.8267  -0.8262  -0.8240   0.0589   0.0623
     0.0627   0.0650   0.9451   0.9481   1.8168   1.8175   1.8224   1.8239
     1.8259   1.8267   2.6947   2.6977   3.5542   3.5557   3.5574   3.5585
     4.4138   4.4152   4.4170   4.4181   5.1228   5.1238   5.1260   5.1269
     5.2943   5.2957   6.1478   6.1490   6.1496   6.1506   6.8171   6.8204
     6.8208   6.8233   7.0004   7.0018   7.3080   7.3092   7.3111   7.3122
     7.6571   7.6586   7.6599   7.6625   9.0730   9.0743   9.0756   9.0783
     9.3499   9.3506

          k =-0.1000-0.5000 0.1000 (  7978 PWs)   bands (ev):

    -2.6222  -2.6215  -0.8287  -0.8282  -0.8259  -0.8241   0.0602   0.0607
     0.0631   0.0649   0.9462   0.9470   1.8169   1.8175   1.8241   1.8243
     1.8250   1.8254   2.6958   2.6966   3.5547   3.5549   3.5579   3.5584
     4.4143   4.4144   4.4174   4.4179   5.1245   5.1245   5.1252   5.1253
     5.2948   5.2952   6.1490   6.1491   6.1494   6.1496   6.8184   6.8189
     6.8212   6.8230   7.0009   7.0013   7.3097   7.3098   7.3104   7.3106
     7.6578   7.6591   7.6603   7.6609   9.0736   9.0749   9.0761   9.0766
     9.3507   9.3511

          k =-0.1000 0.5000-0.1000 (  7978 PWs)   bands (ev):

    -2.6222  -2.6215  -0.8290  -0.8283  -0.8253  -0.8242   0.0599   0.0606
     0.0636   0.0648   0.9462   0.9470   1.8168   1.8174   1.8242   1.8245
     1.8248   1.8256   2.6958   2.6966   3.5543   3.5547   3.5583   3.5586
     4.4139   4.4142   4.4178   4.4181   5.1245   5.1245   5.1247   5.1258
     5.2948   5.2952   6.1487   6.1491   6.1491   6.1502   6.8181   6.8188
     6.8217   6.8229   7.0009   7.0013   7.3097   7.3098   7.3100   7.3111
     7.6580   7.6587   7.6601   7.6612   9.0739   9.0744   9.0759   9.0769
     9.3506   9.3511

          k =-0.1000-0.3000 0.3000 (  7962 PWs)   bands (ev):

    -2.8026  -1.9021  -1.9000  -1.0058  -1.0045  -0.1178  -0.1143  -0.1127
     0.7666   0.7675   0.7683   0.7712   0.7726   1.6467   1.6478   1.6500
     2.5203   2.5223   3.3637   3.3644   3.3802   3.3807   3.3875   3.3897
     4.2234   4.2255   4.2487   4.2786   4.2791   4.9561   5.0669   5.0675
     5.7917   5.7940   5.9514   5.9533   5.9612   5.9620   5.9842   6.6526
     6.7673   6.7688   6.8008   6.8029   6.8372   7.1393   8.0696   8.0710
     8.3164   8.3188   8.4924   8.4936   8.7063   8.7070   8.9131   9.1695
     9.1705   9.3273

          k =-0.1000 0.3000-0.3000 (  7962 PWs)   bands (ev):

    -2.8026  -1.9021  -1.9000  -1.0053  -1.0050  -0.1173  -0.1144  -0.1130
     0.7668   0.7676   0.7690   0.7705   0.7724   1.6467   1.6478   1.6501
     2.5203   2.5223   3.3638   3.3644   3.3802   3.3810   3.3874   3.3895
     4.2234   4.2255   4.2487   4.2786   4.2791   4.9561   5.0669   5.0675
     5.7917   5.7940   5.9514   5.9535   5.9612   5.9619   5.9842   6.6526
     6.7673   6.7687   6.8008   6.8029   6.8372   7.1393   8.0696   8.0710
     8.3164   8.3188   8.4924   8.4936   8.7063   8.7070   8.9131   9.1695
     9.1704   9.3273

          k = 0.1000-0.3000-0.3000 (  7962 PWs)   bands (ev):

    -2.8026  -1.9025  -1.8996  -1.0062  -1.0041  -0.1178  -0.1149  -0.1120
     0.7662   0.7667   0.7688   0.7715   0.7731   1.6467   1.6480   1.6498
     2.5198   2.5228   3.3634   3.3646   3.3799   3.3810   3.3872   3.3901
     4.2230   4.2259   4.2487   4.2783   4.2794   4.9561   5.0666   5.0678
     5.7912   5.7945   5.9508   5.9538   5.9610   5.9624   5.9842   6.6526
     6.7670   6.7691   6.8003   6.8034   6.8372   7.1393   8.0693   8.0713
     8.3159   8.3193   8.4921   8.4938   8.7059   8.7074   8.9131   9.1690
     9.1709   9.3273

          k = 0.3000 0.1000-0.3000 (  7962 PWs)   bands (ev):

    -2.8026  -1.9027  -1.8994  -1.0059  -1.0045  -0.1171  -0.1148  -0.1129
     0.7654   0.7678   0.7687   0.7713   0.7731   1.6459   1.6475   1.6511
     2.5197   2.5230   3.3640   3.3641   3.3806   3.3808   3.3868   3.3899
     4.2228   4.2261   4.2485   4.2788   4.2791   4.9560   5.0671   5.0673
     5.7910   5.7946   5.9509   5.9542   5.9614   5.9615   5.9842   6.6526
     6.7669   6.7691   6.8003   6.8036   6.8372   7.1393   8.0691   8.0714
     8.3157   8.3195   8.4921   8.4939   8.7066   8.7067   8.9131   9.1699
     9.1701   9.3273

          k =-0.3000-0.1000-0.3000 (  7962 PWs)   bands (ev):

    -2.8026  -1.9029  -1.8991  -1.0058  -1.0045  -0.1179  -0.1144  -0.1125
     0.7653   0.7671   0.7697   0.7710   0.7732   1.6464   1.6476   1.6506
     2.5194   2.5232   3.3637   3.3643   3.3801   3.3810   3.3866   3.3904
     4.2225   4.2264   4.2486   4.2786   4.2792   4.9561   5.0669   5.0675
     5.7907   5.7950   5.9506   5.9543   5.9612   5.9619   5.9842   6.6526
     6.7667   6.7693   6.7999   6.8039   6.8372   7.1393   8.0689   8.0717
     8.3154   8.3198   8.4919   8.4940   8.7063   8.7071   8.9131   9.1694
     9.1705   9.3273

          k = 0.3000-0.1000 0.3000 (  7962 PWs)   bands (ev):

    -2.8026  -1.9029  -1.8991  -1.0062  -1.0041  -0.1176  -0.1144  -0.1128
     0.7657   0.7672   0.7687   0.7712   0.7735   1.6459   1.6478   1.6509
     2.5194   2.5232   3.3637   3.3644   3.3803   3.3810   3.3865   3.3902
     4.2226   4.2264   4.2486   4.2786   4.2792   4.9561   5.0669   5.0675
     5.7907   5.7949   5.9506   5.9545   5.9611   5.9618   5.9842   6.6526
     6.7667   6.7692   6.8000   6.8039   6.8372   7.1393   8.0689   8.0717
     8.3154   8.3198   8.4920   8.4940   8.7063   8.7071   8.9131   9.1694
     9.1705   9.3273

          k =-0.3000 0.1000 0.3000 (  7962 PWs)   bands (ev):

    -2.8026  -1.9027  -1.8994  -1.0053  -1.0050  -0.1173  -0.1154  -0.1120
     0.7658   0.7679   0.7694   0.7701   0.7731   1.6466   1.6475   1.6504
     2.5197   2.5230   3.3641   3.3642   3.3803   3.3807   3.3869   3.3901
     4.2229   4.2261   4.2486   4.2788   4.2789   4.9561   5.0671   5.0672
     5.7910   5.7947   5.9508   5.9540   5.9614   5.9618   5.9842   6.6526
     6.7669   6.7691   6.8002   6.8036   6.8372   7.1393   8.0691   8.0715
     8.3157   8.3195   8.4921   8.4939   8.7066   8.7067   8.9131   9.1699
     9.1701   9.3274

          k = 0.3000-0.3000 0.1000 (  7962 PWs)   bands (ev):

    -2.8026  -1.9020  -1.9002  -1.0059  -1.0045  -0.1160  -0.1150  -0.1138
     0.7665   0.7670   0.7697   0.7705   0.7724   1.6459   1.6472   1.6514
     2.5204   2.5222   3.3634   3.3648   3.3801   3.3815   3.3873   3.3891
     4.2236   4.2254   4.2485   4.2782   4.2797   4.9560   5.0665   5.0679
     5.7918   5.7938   5.9517   5.9536   5.9607   5.9620   5.9842   6.6526
     6.7673   6.7686   6.8010   6.8029   6.8372   7.1393   8.0697   8.0709
     8.3165   8.3186   8.4925   8.4935   8.7058   8.7074   8.9131   9.1689
     9.1711   9.3273

          k =-0.3000-0.3000-0.1000 (  7962 PWs)   bands (ev):

    -2.8026  -1.9016  -1.9005  -1.0053  -1.0050  -0.1166  -0.1151  -0.1131
     0.7668   0.7672   0.7691   0.7705   0.7726   1.6461   1.6476   1.6508
     2.5208   2.5219   3.3637   3.3644   3.3802   3.3810   3.3879   3.3889
     4.2239   4.2250   4.2486   4.2786   4.2793   4.9561   5.0669   5.0675
     5.7922   5.7934   5.9520   5.9530   5.9611   5.9618   5.9842   6.6526
     6.7676   6.7683   6.8014   6.8025   6.8372   7.1393   8.0699   8.0707
     8.3170   8.3182   8.4927   8.4933   8.7062   8.7070   8.9131   9.1694
     9.1705   9.3274

          k = 0.3000 0.3000-0.1000 (  7962 PWs)   bands (ev):

    -2.8026  -1.9016  -1.9005  -1.0062  -1.0041  -0.1162  -0.1147  -0.1138
     0.7666   0.7672   0.7691   0.7704   0.7728   1.6461   1.6478   1.6506
     2.5208   2.5219   3.3637   3.3643   3.3805   3.3811   3.3878   3.3889
     4.2239   4.2250   4.2486   4.2786   4.2792   4.9561   5.0669   5.0675
     5.7923   5.7934   5.9521   5.9531   5.9611   5.9617   5.9842   6.6526
     6.7676   6.7683   6.8014   6.8025   6.8372   7.1393   8.0699   8.0707
     8.3170   8.3182   8.4927   8.4933   8.7063   8.7071   8.9131   9.1694
     9.1705   9.3273

          k =-0.3000 0.3000 0.1000 (  7962 PWs)   bands (ev):

    -2.8026  -1.9020  -1.9002  -1.0058  -1.0045  -0.1166  -0.1156  -0.1125
     0.7661   0.7681   0.7694   0.7699   0.7727   1.6464   1.6480   1.6501
     2.5204   2.5222   3.3633   3.3647   3.3798   3.3813   3.3875   3.3895
     4.2235   4.2254   4.2487   4.2782   4.2796   4.9561   5.0665   5.0679
     5.7918   5.7939   5.9516   5.9533   5.9609   5.9622   5.9842   6.6526
     6.7674   6.7687   6.8009   6.8028   6.8372   7.1393   8.0697   8.0709
     8.3165   8.3186   8.4924   8.4935   8.7058   8.7075   8.9131   9.1688
     9.1711   9.3274

          k =-0.1000 0.3000 0.5000 (  7974 PWs)   bands (ev):

    -2.4427  -2.4399  -1.5434  -1.5406  -0.6498  -0.6470   0.2363   0.2394
     0.2404   0.2427   1.1187   1.1205   1.1224   1.1241   1.9919   1.9930
     2.8630   2.8638   2.8676   2.8700   3.7074   3.7103   3.7232   3.7259
     3.7276   3.7287   4.5756   4.5766   4.6182   4.6194   5.2913   5.2942
     5.4275   5.4286   5.4519   5.4546   5.4653   5.4665   6.1554   6.1582
     6.2904   6.2933   7.1683   7.1696   7.4143   7.4167   8.0164   8.0177
     8.0795   8.0805   8.4002   8.4029   8.6624   8.6654   9.0011   9.0037
     9.5474   9.5489

          k = 0.3000 0.1000 0.5000 (  7974 PWs)   bands (ev):

    -2.4427  -2.4399  -1.5434  -1.5406  -0.6498  -0.6470   0.2373   0.2386
     0.2408   0.2419   1.1178   1.1209   1.1223   1.1247   1.9919   1.9930
     2.8630   2.8642   2.8672   2.8700   3.7075   3.7103   3.7230   3.7259
     3.7276   3.7289   4.5756   4.5767   4.6182   4.6193   5.2912   5.2942
     5.4275   5.4285   5.4518   5.4545   5.4654   5.4666   6.1554   6.1582
     6.2904   6.2933   7.1683   7.1696   7.4143   7.4167   8.0164   8.0177
     8.0795   8.0805   8.4002   8.4029   8.6624   8.6654   9.0010   9.0037
     9.5473   9.5489

          k = 0.3000-0.1000-0.5000 (  7974 PWs)   bands (ev):

    -2.4427  -2.4399  -1.5434  -1.5406  -0.6498  -0.6470   0.2364   0.2395
     0.2410   0.2418   1.1176   1.1208   1.1229   1.1245   1.9919   1.9930
     2.8629   2.8639   2.8674   2.8702   3.7075   3.7103   3.7231   3.7255
     3.7280   3.7289   4.5756   4.5766   4.6182   4.6193   5.2912   5.2942
     5.4275   5.4285   5.4518   5.4545   5.4655   5.4666   6.1554   6.1582
     6.2904   6.2933   7.1683   7.1696   7.4143   7.4167   8.0164   8.0177
     8.0795   8.0805   8.4002   8.4029   8.6624   8.6654   9.0011   9.0037
     9.5473   9.5489

          k =-0.5000-0.3000 0.1000 (  7974 PWs)   bands (ev):

    -2.4428  -2.4398  -1.5435  -1.5405  -0.6499  -0.6469   0.2376   0.2387
     0.2407   0.2418   1.1175   1.1205   1.1225   1.1253   1.9918   1.9931
     2.8627   2.8641   2.8673   2.8704   3.7073   3.7104   3.7231   3.7261
     3.7276   3.7288   4.5756   4.5767   4.6181   4.6194   5.2911   5.2943
     5.4274   5.4285   5.4518   5.4547   5.4653   5.4667   6.1553   6.1583
     6.2903   6.2934   7.1682   7.1696   7.4142   7.4168   8.0163   8.0178
     8.0795   8.0806   8.4001   8.4030   8.6622   8.6655   9.0009   9.0038
     9.5473   9.5489

          k = 0.5000-0.3000-0.1000 (  7974 PWs)   bands (ev):

    -2.4428  -2.4398  -1.5435  -1.5405  -0.6499  -0.6469   0.2372   0.2386
     0.2395   0.2435   1.1186   1.1206   1.1218   1.1247   1.9918   1.9931
     2.8629   2.8642   2.8672   2.8701   3.7074   3.7105   3.7230   3.7259
     3.7275   3.7290   4.5756   4.5766   4.6181   4.6194   5.2912   5.2943
     5.4275   5.4286   5.4517   5.4546   5.4652   5.4667   6.1553   6.1583
     6.2903   6.2934   7.1682   7.1696   7.4142   7.4168   8.0163   8.0178
     8.0795   8.0806   8.4001   8.4030   8.6622   8.6655   9.0009   9.0038
     9.5473   9.5489

          k =-0.1000-0.5000 0.3000 (  7974 PWs)   bands (ev):

    -2.4417  -2.4410  -1.5424  -1.5417  -0.6488  -0.6480   0.2373   0.2383
     0.2406   0.2426   1.1198   1.1203   1.1222   1.1235   1.9923   1.9926
     2.8632   2.8636   2.8685   2.8690   3.7085   3.7093   3.7239   3.7249
     3.7279   3.7287   4.5759   4.5762   4.6186   4.6190   5.2923   5.2931
     5.4279   5.4282   5.4528   5.4535   5.4657   5.4662   6.1564   6.1572
     6.2915   6.2922   7.1687   7.1691   7.4152   7.4158   8.0169   8.0172
     8.0799   8.0802   8.4012   8.4019   8.6635   8.6642   9.0020   9.0027
     9.5479   9.5484

          k =-0.1000 0.5000-0.3000 (  7974 PWs)   bands (ev):

    -2.4417  -2.4410  -1.5424  -1.5417  -0.6488  -0.6480   0.2383   0.2391
     0.2403   0.2410   1.1194   1.1206   1.1227   1.1231   1.9923   1.9926
     2.8635   2.8638   2.8682   2.8690   3.7086   3.7093   3.7242   3.7248
     3.7281   3.7283   4.5760   4.5763   4.6186   4.6189   5.2924   5.2931
     5.4279   5.4282   5.4528   5.4536   5.4657   5.4661   6.1565   6.1572
     6.2915   6.2922   7.1687   7.1691   7.4152   7.4158   8.0169   8.0172
     8.0799   8.0802   8.4012   8.4019   8.6635   8.6642   9.0020   9.0027
     9.5479   9.5483

          k = 0.3000-0.5000 0.1000 (  7974 PWs)   bands (ev):

    -2.4417  -2.4410  -1.5424  -1.5417  -0.6488  -0.6480   0.2384   0.2389
     0.2400   0.2415   1.1189   1.1198   1.1226   1.1245   1.9923   1.9926
     2.8633   2.8637   2.8684   2.8691   3.7085   3.7093   3.7238   3.7249
     3.7281   3.7286   4.5760   4.5763   4.6186   4.6189   5.2923   5.2931
     5.4278   5.4281   5.4528   5.4536   5.4658   5.4662   6.1565   6.1572
     6.2915   6.2922   7.1687   7.1691   7.4152   7.4158   8.0169   8.0172
     8.0799   8.0802   8.4012   8.4019   8.6635   8.6643   9.0020   9.0027
     9.5479   9.5483

          k = 0.3000 0.5000-0.1000 (  7974 PWs)   bands (ev):

    -2.4417  -2.4410  -1.5424  -1.5417  -0.6488  -0.6480   0.2379   0.2392
     0.2406   0.2410   1.1198   1.1205   1.1224   1.1231   1.9923   1.9926
     2.8634   2.8638   2.8682   2.8691   3.7085   3.7093   3.7243   3.7250
     3.7279   3.7282   4.5760   4.5763   4.6186   4.6189   5.2924   5.2931
     5.4279   5.4282   5.4529   5.4536   5.4657   5.4661   6.1565   6.1572
     6.2915   6.2922   7.1687   7.1691   7.4152   7.4158   8.0169   8.0172
     8.0799   8.0802   8.4012   8.4019   8.6635   8.6643   9.0020   9.0027
     9.5479   9.5483

          k =-0.5000 0.1000 0.3000 (  7974 PWs)   bands (ev):

    -2.4428  -2.4398  -1.5435  -1.5405  -0.6499  -0.6469   0.2359   0.2389
     0.2406   0.2433   1.1189   1.1209   1.1220   1.1240   1.9918   1.9931
     2.8630   2.8642   2.8671   2.8701   3.7074   3.7105   3.7229   3.7256
     3.7277   3.7292   4.5755   4.5766   4.6182   4.6195   5.2912   5.2943
     5.4275   5.4286   5.4517   5.4546   5.4653   5.4667   6.1553   6.1583
     6.2903   6.2934   7.1682   7.1696   7.4142   7.4168   8.0163   8.0178
     8.0795   8.0806   8.4001   8.4030   8.6622   8.6655   9.0010   9.0038
     9.5473   9.5490

          k = 0.5000-0.1000 0.3000 (  7974 PWs)   bands (ev):

    -2.4428  -2.4398  -1.5435  -1.5405  -0.6499  -0.6469   0.2372   0.2387
     0.2401   0.2427   1.1186   1.1203   1.1214   1.1254   1.9918   1.9931
     2.8629   2.8640   2.8673   2.8702   3.7074   3.7104   3.7230   3.7261
     3.7275   3.7288   4.5756   4.5767   4.6181   4.6194   5.2912   5.2943
     5.4274   5.4285   5.4517   5.4547   5.4653   5.4667   6.1553   6.1583
     6.2903   6.2934   7.1682   7.1696   7.4142   7.4168   8.0163   8.0178
     8.0795   8.0806   8.4001   8.4030   8.6622   8.6655   9.0009   9.0038
     9.5473   9.5489

          k =-0.5000 0.1000 0.5000 (  7944 PWs)   bands (ev):

    -2.0847  -2.0817  -2.0798  -2.0773  -0.2962  -0.2932  -0.2914  -0.2888
     0.5895   0.5924   0.5943   0.5969   2.3373   2.3380   2.3396   2.3418
     2.3427   2.3430   2.3442   2.3462   4.0581   4.0588   4.0605   4.0627
     4.0637   4.0638   4.0651   4.0671   4.9586   4.9595   4.9608   4.9631
     4.9639   4.9645   4.9655   4.9676   5.6202   5.6233   5.6255   5.6282
     6.6140   6.6151   6.6167   6.6176   7.9070   7.9096   7.9108   7.9131
     8.3442   8.3457   8.3468   8.3479   9.1884   9.1898   9.1909   9.1921
     9.8218   9.8256

          k =-0.5000 0.5000 0.1000 (  7944 PWs)   bands (ev):

    -2.0831  -2.0820  -2.0794  -2.0791  -0.2947  -0.2935  -0.2909  -0.2906
     0.5910   0.5922   0.5948   0.5951   2.3378   2.3391   2.3397   2.3412
     2.3419   2.3435   2.3445   2.3450   4.0586   4.0601   4.0605   4.0622
     4.0627   4.0643   4.0655   4.0660   4.9593   4.9604   4.9612   4.9624
     4.9633   4.9649   4.9655   4.9663   5.6219   5.6232   5.6259   5.6262
     6.6148   6.6154   6.6165   6.6166   7.9082   7.9092   7.9114   7.9117
     8.3450   8.3457   8.3469   8.3471   9.1891   9.1898   9.1911   9.1912
     9.8220   9.8252

          k =-0.3000-0.3000 0.3000 (  7997 PWs)   bands (ev):

    -2.6219  -1.7233  -1.7216  -1.7194  -0.8285  -0.8268  -0.8246   0.0628
     0.9426   0.9443   0.9465   1.8190   1.8217   1.8221   1.8233   1.8246
     1.8262   2.6944   2.6949   2.6953   3.5361   3.5366   3.5370   4.3906
     4.3935   4.3940   4.3951   4.3965   4.3980   4.4075   4.4092   4.4115
     5.2805   5.2822   5.2845   5.2992   5.2997   5.3002   6.9593   6.9606
     6.9614   6.9622   6.9630   6.9640   7.8134   7.8146   7.8154   7.8161
     7.8168   7.8180   7.8542   8.8314   8.8321   8.8328   9.5346   9.5350
     9.5353   9.7487

          k =-0.3000 0.3000-0.3000 (  7997 PWs)   bands (ev):

    -2.6219  -1.7238  -1.7214  -1.7191  -0.8289  -0.8266  -0.8243   0.0628
     0.9421   0.9445   0.9468   1.8200   1.8205   1.8217   1.8228   1.8251
     1.8267   2.6940   2.6949   2.6957   3.5358   3.5366   3.5374   4.3917
     4.3923   4.3935   4.3946   4.3970   4.3986   4.4070   4.4094   4.4118
     5.2800   5.2824   5.2848   5.2988   5.2997   5.3006   6.9593   6.9601
     6.9608   6.9627   6.9634   6.9642   7.8133   7.8141   7.8148   7.8167
     7.8173   7.8181   7.8542   8.8309   8.8321   8.8333   9.5344   9.5350
     9.5355   9.7485

          k = 0.3000-0.3000-0.3000 (  7997 PWs)   bands (ev):

    -2.6219  -1.7234  -1.7220  -1.7189  -0.8286  -0.8272  -0.8240   0.0628
     0.9424   0.9439   0.9471   1.8197   1.8207   1.8222   1.8231   1.8244
     1.8267   2.6939   2.6949   2.6958   3.5357   3.5366   3.5375   4.3914
     4.3925   4.3940   4.3949   4.3962   4.3986   4.4074   4.4089   4.4121
     5.2803   5.2818   5.2851   5.2987   5.2997   5.3007   6.9590   6.9603
     6.9609   6.9626   6.9630   6.9646   7.8129   7.8144   7.8149   7.8166
     7.8170   7.8184   7.8542   8.8307   8.8321   8.8335   9.5343   9.5350
     9.5356   9.7477

          k =-0.3000 0.3000 0.5000 (  7950 PWs)   bands (ev):

    -2.2624  -2.2596  -1.3652  -1.3634  -1.3625  -1.3602  -0.4716  -0.4688
     1.2940   1.2959   1.2968   1.2991   2.1659   2.1673   2.1709   2.1720
     2.1735   2.1749   3.0356   3.0367   3.0374   3.0386   3.8785   3.8800
     3.8815   3.8828   3.8906   3.8916   4.7235   4.7254   4.7263   4.7286
     4.7942   4.7968   5.6424   5.6436   5.6444   5.6456   6.4861   6.4873
     6.4879   6.4890   7.3035   7.3046   7.3064   7.3077   8.1131   8.1143
     8.1151   8.1162   8.9855   8.9869   8.9874   8.9888   9.0278   9.0291
     9.2730   9.2748

          k =-0.5000-0.3000 0.3000 (  7950 PWs)   bands (ev):

    -2.2625  -2.2595  -1.3659  -1.3632  -1.3619  -1.3604  -0.4717  -0.4687
     1.2934   1.2961   1.2974   1.2989   2.1662   2.1671   2.1710   2.1716
     2.1737   2.1749   3.0354   3.0367   3.0375   3.0388   3.8790   3.8793
     3.8814   3.8830   3.8904   3.8917   4.7229   4.7256   4.7269   4.7285
     4.7940   4.7970   5.6423   5.6436   5.6444   5.6457   6.4865   6.4871
     6.4874   6.4892   7.3031   7.3047   7.3067   7.3077   8.1138   8.1141
     8.1145   8.1162   8.9853   8.9868   8.9875   8.9890   9.0277   9.0291
     9.2740   9.2754

          k = 0.5000-0.3000-0.3000 (  7950 PWs)   bands (ev):

    -2.2625  -2.2595  -1.3661  -1.3628  -1.3623  -1.3601  -0.4717  -0.4687
     1.2932   1.2965   1.2970   1.2992   2.1663   2.1670   2.1705   2.1720
     2.1740   2.1747   3.0349   3.0363   3.0381   3.0392   3.8786   3.8797
     3.8815   3.8829   3.8904   3.8918   4.7227   4.7260   4.7264   4.7288
     4.7940   4.7970   5.6418   5.6431   5.6450   5.6462   6.4861   6.4873
     6.4879   6.4889   7.3033   7.3045   7.3059   7.3085   8.1132   8.1144
     8.1150   8.1161   8.9847   8.9864   8.9881   8.9894   9.0278   9.0292
     9.2741   9.2756

          k =-0.3000-0.5000 0.3000 (  7950 PWs)   bands (ev):

    -2.2614  -2.2606  -1.3648  -1.3643  -1.3620  -1.3602  -0.4706  -0.4698
     1.2945   1.2949   1.2973   1.2991   2.1664   2.1670   2.1721   2.1723
     2.1730   2.1736   3.0354   3.0355   3.0385   3.0390   3.8804   3.8804
     3.8808   3.8812   3.8910   3.8913   4.7240   4.7244   4.7268   4.7286
     4.7951   4.7959   5.6422   5.6424   5.6455   5.6459   6.4873   6.4874
     6.4877   6.4879   7.3038   7.3052   7.3063   7.3068   8.1144   8.1145
     8.1148   8.1149   8.9853   8.9855   8.9885   8.9893   9.0283   9.0287
     9.2741   9.2747

          k =-0.3000 0.5000-0.3000 (  7950 PWs)   bands (ev):

    -2.2614  -2.2606  -1.3651  -1.3645  -1.3614  -1.3603  -0.4706  -0.4698
     1.2942   1.2948   1.2978   1.2990   2.1663   2.1668   2.1722   2.1726
     2.1729   2.1737   3.0350   3.0353   3.0389   3.0392   3.8801   3.8803
     3.8805   3.8818   3.8911   3.8913   4.7237   4.7243   4.7274   4.7285
     4.7951   4.7959   5.6418   5.6422   5.6459   5.6462   6.4869   6.4874
     6.4874   6.4885   7.3042   7.3048   7.3061   7.3071   8.1141   8.1143
     8.1147   8.1156   8.9849   8.9853   8.9890   8.9894   9.0283   9.0286
     9.2742   9.2745

          k =-0.5000 0.3000 0.5000 (  7960 PWs)   bands (ev):

    -1.9049  -1.9019  -1.9000  -1.8975  -1.0089  -1.0059  -1.0041  -1.0015
     1.6438   1.6468   1.6487   1.6512   2.5115   2.5122   2.5138   2.5160
     2.5169   2.5172   2.5184   2.5205   3.3782   3.3789   3.3805   3.3827
     3.3837   3.3839   3.3851   3.3872   4.2191   4.2222   4.2242   4.2268
     5.9715   5.9723   5.9738   5.9761   5.9770   5.9775   5.9786   5.9807
     6.8100   6.8114   6.8125   6.8136   7.6658   7.6672   7.6683   7.6695
     8.4711   8.4719   8.4735   8.4760   8.4770   8.4774   8.4786   8.4810
     9.5951   9.5991

          k =-0.5000 0.5000 0.3000 (  7960 PWs)   bands (ev):

    -1.9033  -1.9021  -1.8995  -1.8993  -1.0074  -1.0062  -1.0036  -1.0033
     1.6453   1.6465   1.6491   1.6494   2.5120   2.5133   2.5139   2.5154
     2.5161   2.5178   2.5187   2.5193   3.3787   3.3801   3.3806   3.3821
     3.3828   3.3845   3.3855   3.3860   4.2207   4.2220   4.2247   4.2249
     5.9720   5.9733   5.9741   5.9755   5.9763   5.9780   5.9788   5.9795
     6.8108   6.8114   6.8126   6.8127   7.6666   7.6672   7.6685   7.6686
     8.4716   8.4731   8.4737   8.4753   8.4761   8.4781   8.4790   8.4796
     9.5967   9.5988

     the Fermi energy is     8.0165 ev

!    total energy              =   -1264.08223865 Ry
     Harris-Foulkes estimate   =   -1264.08223843 Ry
     estimated scf accuracy    <       0.00000052 Ry

     total all-electron energy =    -15540.651261 Ry

     The total energy is the sum of the following terms:

     one-electron contribution =     101.24488288 Ry
     hartree contribution      =       0.19424657 Ry
     xc contribution           =     -82.90977255 Ry
     ewald contribution        =    -172.93188273 Ry
     one-center paw contrib.   =   -1109.67944770 Ry
     smearing contrib. (-TS)   =      -0.00026513 Ry

     convergence has been achieved in   8 iterations

     Forces acting on atoms (cartesian axes, Ry/au):

     atom    1 type  1   force =    -0.00009950    0.00000120    0.00003624
     atom    2 type  1   force =    -0.00009180    0.00023854    0.00005990
     atom    3 type  1   force =     0.00024336    0.00000019   -0.00047939
     atom    4 type  1   force =     0.00003183   -0.00024072   -0.00034959
     atom    5 type  1   force =    -0.00042827   -0.00036343    0.00031082
     atom    6 type  1   force =    -0.00020376    0.00039415   -0.00003237
     atom    7 type  1   force =    -0.00017829   -0.00048372    0.00030276
     atom    8 type  1   force =    -0.00002429   -0.00005080   -0.00030049
     atom    9 type  1   force =    -0.00005564   -0.00002396    0.00008542
     atom   10 type  1   force =    -0.00018733   -0.00013177   -0.00067726
     atom   11 type  1   force =    -0.00030328   -0.00027048   -0.00035054
     atom   12 type  1   force =    -0.00017461   -0.00000258   -0.00003706
     atom   13 type  1   force =    -0.00012259   -0.00033727   -0.00004739
     atom   14 type  1   force =    -0.00005477    0.00012691    0.00041275
     atom   15 type  1   force =    -0.00052880    0.00035069    0.00052422
     atom   16 type  1   force =     0.00064253    0.00049131    0.00018991
     atom   17 type  1   force =    -0.00034003    0.00007886    0.00005772
     atom   18 type  1   force =     0.00020483   -0.00012274    0.00034672
     atom   19 type  1   force =     0.00060134    0.00019802   -0.00014498
     atom   20 type  1   force =     0.00004142    0.00019828    0.00005690
     atom   21 type  1   force =     0.00014257   -0.00056782    0.00010465
     atom   22 type  1   force =    -0.00007346    0.00059984    0.00024616
     atom   23 type  1   force =     0.00012155   -0.00005166   -0.00011089
     atom   24 type  1   force =     0.00013653    0.00009661    0.00000546
     atom   25 type  1   force =     0.00011617   -0.00015923    0.00029748
     atom   26 type  1   force =     0.00033239   -0.00026131   -0.00024549
     atom   27 type  1   force =    -0.00014908    0.00015856    0.00005305
     atom   28 type  1   force =    -0.00009498    0.00026326   -0.00010899
     atom   29 type  1   force =     0.00082734   -0.00034023   -0.00007852
     atom   30 type  1   force =    -0.00022991    0.00005389    0.00018346
     atom   31 type  1   force =    -0.00005605   -0.00009763   -0.00029544
     atom   32 type  1   force =    -0.00004539    0.00025504   -0.00001525

     Total force =     0.002705     Total SCF correction =     0.000383
     SCF correction compared to forces is large: reduce conv_thr to get better values


     Computing stress (Cartesian axis) and pressure

          total   stress  (Ry/bohr**3)                   (kbar)     P=   -2.96
  -0.00002009  -0.00000000  -0.00000000         -2.96     -0.00     -0.00
  -0.00000000  -0.00002008  -0.00000002         -0.00     -2.95     -0.00
  -0.00000000  -0.00000002  -0.00002011         -0.00     -0.00     -2.96


     Writing output data file fe_scf_fcc_2.save/
 
     init_run     :      5.26s CPU      5.51s WALL (       1 calls)
     electrons    :     74.51s CPU     76.39s WALL (       1 calls)
     forces       :      1.09s CPU      1.13s WALL (       1 calls)
     stress       :      3.55s CPU      3.57s WALL (       1 calls)

     Called by init_run:
     wfcinit      :      4.99s CPU      5.15s WALL (       1 calls)
     potinit      :      0.15s CPU      0.15s WALL (       1 calls)
     hinit0       :      0.10s CPU      0.18s WALL (       1 calls)

     Called by electrons:
     c_bands      :     65.11s CPU     66.65s WALL (       9 calls)
     sum_band     :      8.47s CPU      8.77s WALL (       9 calls)
     v_of_rho     :      0.07s CPU      0.07s WALL (       9 calls)
     newd         :      0.05s CPU      0.06s WALL (       9 calls)
     PAW_pot      :      0.89s CPU      0.90s WALL (       9 calls)
     mix_rho      :      0.02s CPU      0.02s WALL (       9 calls)

     Called by c_bands:
     init_us_2    :      1.17s CPU      1.20s WALL (    1323 calls)
     cegterg      :     61.62s CPU     63.14s WALL (     567 calls)

     Called by sum_band:
     sum_band:bec :      0.09s CPU      0.10s WALL (     567 calls)
     addusdens    :      0.04s CPU      0.04s WALL (       9 calls)

     Called by *egterg:
     h_psi        :     41.76s CPU     43.10s WALL (    1980 calls)
     s_psi        :      2.91s CPU      2.93s WALL (    1980 calls)
     g_psi        :      0.12s CPU      0.12s WALL (    1350 calls)
     cdiaghg      :     12.63s CPU     12.68s WALL (    1854 calls)

     Called by h_psi:
     h_psi:pot    :     41.62s CPU     42.96s WALL (    1980 calls)
     h_psi:calbec :      3.88s CPU      4.11s WALL (    1980 calls)
     vloc_psi     :     34.74s CPU     35.82s WALL (    1980 calls)
     add_vuspsi   :      2.98s CPU      3.01s WALL (    1980 calls)

     General routines
     calbec       :      7.09s CPU      7.46s WALL (    2862 calls)
     fft          :      0.20s CPU      0.28s WALL (     142 calls)
     ffts         :      0.01s CPU      0.01s WALL (      18 calls)
     fftw         :     38.37s CPU     39.57s WALL (  220860 calls)
     interpolate  :      0.01s CPU      0.01s WALL (       9 calls)
 
     Parallel routines
     fft_scatt_xy :      3.51s CPU      3.62s WALL (  221020 calls)
     fft_scatt_yz :     20.33s CPU     21.00s WALL (  221020 calls)
 
     PWSCF        :  1m25.85s CPU     1m28.65s WALL

 
   This run was terminated on:   1:11:31  12Mar2020            

=------------------------------------------------------------------------------=
   JOB DONE.
=------------------------------------------------------------------------------=
