
     Program PWSCF v.6.4.1 starts on 24Feb2020 at 15:42:31 

     This program is part of the open-source Quantum ESPRESSO suite
     for quantum simulation of materials; please cite
         "P. Giannozzi et al., J. Phys.:Condens. Matter 21 395502 (2009);
         "P. Giannozzi et al., J. Phys.:Condens. Matter 29 465901 (2017);
          URL http://www.quantum-espresso.org", 
     in publications or presentations arising from this work. More details at
     http://www.quantum-espresso.org/quote

     Parallel version (MPI), running on     4 processors

     MPI processes distributed on     1 nodes
     R & G space division:  proc/nbgrp/npool/nimage =       4
     Reading input from /cloud/Code/python/py_pwscf_converge/src/example2/wd/runpwscf/file_10007.in
Warning: card &IONS ignored
Warning: card ION_DYNAMICS = 'BFGS', ignored
Warning: card / ignored
Warning: card &CELL ignored
Warning: card CELL_DYNAMICS = 'BFGS', ignored
Warning: card CELL_FACTOR = 2.0, ignored
Warning: card PRESS = 0.0, ignored
Warning: card / ignored

     Current dimensions of program PWSCF are:
     Max number of different atomic species (ntypx) = 10
     Max number of k-points (npk) =  40000
     Max angular momentum in pseudopotentials (lmaxx) =  3
               file Al.pbe-nl-kjpaw_psl.1.0.0.UPF: wavefunction(s)  3S 3P renormalized

     Subspace diagonalization in iterative solution of the eigenvalue problem:
     a serial algorithm will be used


     Parallelization info
     --------------------
     sticks:   dense  smooth     PW     G-vecs:    dense   smooth      PW
     Min         252     252     74                 6100     6100     989
     Max         253     253     76                 6104     6104     990
     Sum        1009    1009    301                24405    24405    3959



     bravais-lattice index     =            0
     lattice parameter (alat)  =       7.6356  a.u.
     unit-cell volume          =     445.1737 (a.u.)^3
     number of atoms/cell      =            2
     number of atomic types    =            1
     number of electrons       =         6.00
     number of Kohn-Sham states=            7
     kinetic-energy cutoff     =      55.0000  Ry
     charge density cutoff     =     220.0000  Ry
     convergence threshold     =      1.0E-06
     mixing beta               =       0.1000
     number of iterations used =           10  TF        mixing
     Exchange-correlation      = SLA PW PBX PBC ( 1  4  3  4 0 0)

     celldm(1)=   7.635600  celldm(2)=   0.000000  celldm(3)=   0.000000
     celldm(4)=   0.000000  celldm(5)=   0.000000  celldm(6)=   0.000000

     crystal axes: (cart. coord. in units of alat)
               a(1) = (   1.000000   0.000000   0.000000 )  
               a(2) = (   0.000000   1.000000   0.000000 )  
               a(3) = (   0.000000   0.000000   1.000000 )  

     reciprocal axes: (cart. coord. in units 2 pi/alat)
               b(1) = (  1.000000  0.000000  0.000000 )  
               b(2) = (  0.000000  1.000000  0.000000 )  
               b(3) = (  0.000000  0.000000  1.000000 )  


     PseudoPot. # 1 for Al read from file:
     /opt/pp/Al.pbe-nl-kjpaw_psl.1.0.0.UPF
     MD5 check sum: 1b67f78b73fe58c7924490f171ce8a1e
     Pseudo is Projector augmented-wave + core cor, Zval =  3.0
     Generated using "atomic" code by A. Dal Corso v.6.3
     Shape of augmentation charge: PSQ
     Using radial grid of 1135 points,  4 beta functions with: 
                l(1) =   0
                l(2) =   0
                l(3) =   1
                l(4) =   1
     Q(r) pseudized with 0 coefficients 


     atomic species   valence    mass     pseudopotential
        Al             3.00    26.98200     Al( 1.00)

     No symmetry found



   Cartesian axes

     site n.     atom                  positions (alat units)
         1           Al  tau(   1) = (  -0.0000654   0.0000190   0.0001361  )
         2           Al  tau(   2) = (   0.5001592   0.4996200   0.5001406  )

     number of k points=    63  Marzari-Vanderbilt smearing, width (Ry)=  0.0200
                       cart. coord. in units 2pi/alat
        k(    1) = (   0.1000000   0.1000000   0.1000000), wk =   0.0320000
        k(    2) = (   0.1000000   0.1000000   0.3000000), wk =   0.0320000
        k(    3) = (   0.1000000   0.1000000  -0.5000000), wk =   0.0320000
        k(    4) = (   0.1000000   0.3000000   0.3000000), wk =   0.0320000
        k(    5) = (   0.1000000   0.3000000  -0.5000000), wk =   0.0320000
        k(    6) = (   0.1000000  -0.5000000  -0.5000000), wk =   0.0320000
        k(    7) = (   0.3000000   0.3000000   0.3000000), wk =   0.0320000
        k(    8) = (   0.3000000   0.3000000  -0.5000000), wk =   0.0320000
        k(    9) = (   0.3000000  -0.5000000  -0.5000000), wk =   0.0320000
        k(   10) = (  -0.5000000  -0.5000000  -0.5000000), wk =   0.0160000
        k(   11) = (  -0.1000000  -0.1000000   0.1000000), wk =   0.0320000
        k(   12) = (  -0.1000000   0.1000000  -0.1000000), wk =   0.0320000
        k(   13) = (   0.1000000  -0.1000000  -0.1000000), wk =   0.0320000
        k(   14) = (  -0.1000000  -0.1000000   0.3000000), wk =   0.0320000
        k(   15) = (  -0.1000000   0.1000000  -0.3000000), wk =   0.0320000
        k(   16) = (   0.1000000  -0.1000000  -0.3000000), wk =   0.0320000
        k(   17) = (   0.3000000  -0.1000000   0.1000000), wk =   0.0320000
        k(   18) = (  -0.3000000  -0.1000000  -0.1000000), wk =   0.0320000
        k(   19) = (   0.3000000   0.1000000  -0.1000000), wk =   0.0320000
        k(   20) = (  -0.3000000   0.1000000   0.1000000), wk =   0.0320000
        k(   21) = (  -0.1000000   0.3000000   0.1000000), wk =   0.0320000
        k(   22) = (  -0.1000000  -0.3000000  -0.1000000), wk =   0.0320000
        k(   23) = (   0.1000000   0.3000000  -0.1000000), wk =   0.0320000
        k(   24) = (   0.1000000  -0.3000000   0.1000000), wk =   0.0320000
        k(   25) = (  -0.1000000   0.1000000   0.5000000), wk =   0.0320000
        k(   26) = (  -0.5000000  -0.1000000   0.1000000), wk =   0.0320000
        k(   27) = (   0.5000000  -0.1000000  -0.1000000), wk =   0.0320000
        k(   28) = (  -0.1000000  -0.5000000   0.1000000), wk =   0.0320000
        k(   29) = (  -0.1000000   0.5000000  -0.1000000), wk =   0.0320000
        k(   30) = (  -0.1000000  -0.3000000   0.3000000), wk =   0.0320000
        k(   31) = (  -0.1000000   0.3000000  -0.3000000), wk =   0.0320000
        k(   32) = (   0.1000000  -0.3000000  -0.3000000), wk =   0.0320000
        k(   33) = (   0.3000000   0.1000000  -0.3000000), wk =   0.0320000
        k(   34) = (  -0.3000000  -0.1000000  -0.3000000), wk =   0.0320000
        k(   35) = (   0.3000000  -0.1000000   0.3000000), wk =   0.0320000
        k(   36) = (  -0.3000000   0.1000000   0.3000000), wk =   0.0320000
        k(   37) = (   0.3000000  -0.3000000   0.1000000), wk =   0.0320000
        k(   38) = (  -0.3000000  -0.3000000  -0.1000000), wk =   0.0320000
        k(   39) = (   0.3000000   0.3000000  -0.1000000), wk =   0.0320000
        k(   40) = (  -0.3000000   0.3000000   0.1000000), wk =   0.0320000
        k(   41) = (  -0.1000000   0.3000000   0.5000000), wk =   0.0320000
        k(   42) = (   0.3000000   0.1000000   0.5000000), wk =   0.0320000
        k(   43) = (   0.3000000  -0.1000000  -0.5000000), wk =   0.0320000
        k(   44) = (  -0.5000000  -0.3000000   0.1000000), wk =   0.0320000
        k(   45) = (   0.5000000  -0.3000000  -0.1000000), wk =   0.0320000
        k(   46) = (  -0.1000000  -0.5000000   0.3000000), wk =   0.0320000
        k(   47) = (  -0.1000000   0.5000000  -0.3000000), wk =   0.0320000
        k(   48) = (   0.3000000  -0.5000000   0.1000000), wk =   0.0320000
        k(   49) = (   0.3000000   0.5000000  -0.1000000), wk =   0.0320000
        k(   50) = (  -0.5000000   0.1000000   0.3000000), wk =   0.0320000
        k(   51) = (   0.5000000  -0.1000000   0.3000000), wk =   0.0320000
        k(   52) = (  -0.5000000   0.1000000   0.5000000), wk =   0.0320000
        k(   53) = (  -0.5000000   0.5000000   0.1000000), wk =   0.0320000
        k(   54) = (  -0.3000000  -0.3000000   0.3000000), wk =   0.0320000
        k(   55) = (  -0.3000000   0.3000000  -0.3000000), wk =   0.0320000
        k(   56) = (   0.3000000  -0.3000000  -0.3000000), wk =   0.0320000
        k(   57) = (  -0.3000000   0.3000000   0.5000000), wk =   0.0320000
        k(   58) = (  -0.5000000  -0.3000000   0.3000000), wk =   0.0320000
        k(   59) = (   0.5000000  -0.3000000  -0.3000000), wk =   0.0320000
        k(   60) = (  -0.3000000  -0.5000000   0.3000000), wk =   0.0320000
        k(   61) = (  -0.3000000   0.5000000  -0.3000000), wk =   0.0320000
        k(   62) = (  -0.5000000   0.3000000   0.5000000), wk =   0.0320000
        k(   63) = (  -0.5000000   0.5000000   0.3000000), wk =   0.0320000

     Dense  grid:    24405 G-vectors     FFT dimensions: (  40,  40,  40)

     Estimated max dynamical RAM per process >      14.50 MB

     Estimated total dynamical RAM >      58.01 MB

     Initial potential from superposition of free atoms

     starting charge    5.99542, renormalised to    6.00000
     Starting wfcs are    8 randomized atomic wfcs
     Checking if some PAW data can be deallocated... 

     total cpu time spent up to now is        0.8 secs

     Self-consistent Calculation

     iteration #  1     ecut=    55.00 Ry     beta= 0.10
     Davidson diagonalization with overlap
     ethr =  1.00E-02,  avg # of iterations =  3.3

     Threshold (ethr) on eigenvalues was too large:
     Diagonalizing with lowered threshold

     Davidson diagonalization with overlap
     ethr =  1.35E-04,  avg # of iterations =  2.8

     total cpu time spent up to now is        2.5 secs

     total energy              =     -78.85767763 Ry
     Harris-Foulkes estimate   =     -78.85796605 Ry
     estimated scf accuracy    <       0.00788122 Ry

     iteration #  2     ecut=    55.00 Ry     beta= 0.10
     Davidson diagonalization with overlap
     ethr =  1.31E-04,  avg # of iterations =  1.0

     total cpu time spent up to now is        3.1 secs

     total energy              =     -78.85555286 Ry
     Harris-Foulkes estimate   =     -78.85771726 Ry
     estimated scf accuracy    <       0.00688356 Ry

     iteration #  3     ecut=    55.00 Ry     beta= 0.10
     Davidson diagonalization with overlap
     ethr =  1.15E-04,  avg # of iterations =  1.0

     total cpu time spent up to now is        3.8 secs

     total energy              =     -78.85585905 Ry
     Harris-Foulkes estimate   =     -78.85592363 Ry
     estimated scf accuracy    <       0.00003308 Ry

     iteration #  4     ecut=    55.00 Ry     beta= 0.10
     Davidson diagonalization with overlap
     ethr =  5.51E-07,  avg # of iterations =  3.1

     total cpu time spent up to now is        4.8 secs

     total energy              =     -78.85583970 Ry
     Harris-Foulkes estimate   =     -78.85590219 Ry
     estimated scf accuracy    <       0.00001753 Ry

     iteration #  5     ecut=    55.00 Ry     beta= 0.10
     Davidson diagonalization with overlap
     ethr =  2.92E-07,  avg # of iterations =  2.0

     total cpu time spent up to now is        5.5 secs

     total energy              =     -78.85583114 Ry
     Harris-Foulkes estimate   =     -78.85584272 Ry
     estimated scf accuracy    <       0.00002174 Ry

     iteration #  6     ecut=    55.00 Ry     beta= 0.10
     Davidson diagonalization with overlap
     ethr =  2.92E-07,  avg # of iterations =  2.0

     total cpu time spent up to now is        6.2 secs

     End of self-consistent calculation

          k = 0.1000 0.1000 0.1000 (  3044 PWs)   bands (ev):

    -4.5731   1.2785   2.9240   2.9240   4.9373   7.2247   7.2247

          k = 0.1000 0.1000 0.3000 (  3069 PWs)   bands (ev):

    -3.8716  -0.5123   2.8391   3.5929   5.9640   5.9668   6.8171

          k = 0.1000 0.1000-0.5000 (  3048 PWs)   bands (ev):

    -2.4898  -2.4892   4.0903   4.0910   4.9126   4.9131   7.2135

          k = 0.1000 0.3000 0.3000 (  3062 PWs)   bands (ev):

    -3.1803  -0.3575   1.0690   3.8023   3.9650   6.6872   7.1450

          k = 0.1000 0.3000-0.5000 (  3076 PWs)   bands (ev):

    -1.8422  -1.8416   1.8739   1.8745   5.2307   5.2312   7.9030

          k = 0.1000-0.5000-0.5000 (  3092 PWs)   bands (ev):

    -1.0111  -1.0109   0.4016   0.4017   6.0061   6.0064   7.1391

          k = 0.3000 0.3000 0.3000 (  3067 PWs)   bands (ev):

    -2.4999  -0.0904   1.7562   1.7562   3.6787   5.1422   5.1423

          k = 0.3000 0.3000-0.5000 (  3060 PWs)   bands (ev):

    -1.2106  -1.2100   2.1385   2.1391   3.1224   3.1229   6.0896

          k = 0.3000-0.5000-0.5000 (  3068 PWs)   bands (ev):

    -0.4339  -0.4337   1.0920   1.0921   3.7116   3.7118   4.5072

          k =-0.5000-0.5000-0.5000 (  3112 PWs)   bands (ev):

     0.1766   0.1768   2.4633   2.4650   2.4670   2.4676   2.4702

          k =-0.1000-0.1000 0.1000 (  3044 PWs)   bands (ev):

    -4.5731   1.2785   2.9239   2.9240   4.9374   7.2247   7.2247

          k =-0.1000 0.1000-0.1000 (  3044 PWs)   bands (ev):

    -4.5731   1.2785   2.9239   2.9240   4.9374   7.2247   7.2247

          k = 0.1000-0.1000-0.1000 (  3044 PWs)   bands (ev):

    -4.5731   1.2785   2.9239   2.9240   4.9374   7.2247   7.2247

          k =-0.1000-0.1000 0.3000 (  3069 PWs)   bands (ev):

    -3.8716  -0.5123   2.8391   3.5929   5.9641   5.9667   6.8171

          k =-0.1000 0.1000-0.3000 (  3069 PWs)   bands (ev):

    -3.8716  -0.5123   2.8391   3.5929   5.9631   5.9678   6.8170

          k = 0.1000-0.1000-0.3000 (  3069 PWs)   bands (ev):

    -3.8716  -0.5123   2.8391   3.5929   5.9629   5.9680   6.8170

          k = 0.3000-0.1000 0.1000 (  3069 PWs)   bands (ev):

    -3.8716  -0.5123   2.8391   3.5929   5.9631   5.9678   6.8170

          k =-0.3000-0.1000-0.1000 (  3069 PWs)   bands (ev):

    -3.8716  -0.5123   2.8391   3.5929   5.9640   5.9668   6.8171

          k = 0.3000 0.1000-0.1000 (  3069 PWs)   bands (ev):

    -3.8716  -0.5123   2.8391   3.5929   5.9641   5.9668   6.8170

          k =-0.3000 0.1000 0.1000 (  3069 PWs)   bands (ev):

    -3.8716  -0.5123   2.8391   3.5929   5.9630   5.9679   6.8171

          k =-0.1000 0.3000 0.1000 (  3069 PWs)   bands (ev):

    -3.8716  -0.5123   2.8391   3.5929   5.9630   5.9679   6.8170

          k =-0.1000-0.3000-0.1000 (  3069 PWs)   bands (ev):

    -3.8716  -0.5123   2.8391   3.5929   5.9641   5.9667   6.8171

          k = 0.1000 0.3000-0.1000 (  3069 PWs)   bands (ev):

    -3.8716  -0.5123   2.8391   3.5929   5.9642   5.9667   6.8170

          k = 0.1000-0.3000 0.1000 (  3069 PWs)   bands (ev):

    -3.8716  -0.5123   2.8391   3.5929   5.9632   5.9678   6.8171

          k =-0.1000 0.1000 0.5000 (  3048 PWs)   bands (ev):

    -2.4898  -2.4892   4.0903   4.0910   4.9126   4.9131   7.2134

          k =-0.5000-0.1000 0.1000 (  3048 PWs)   bands (ev):

    -2.4909  -2.4881   4.0896   4.0917   4.9112   4.9145   7.2144

          k = 0.5000-0.1000-0.1000 (  3048 PWs)   bands (ev):

    -2.4909  -2.4881   4.0895   4.0917   4.9113   4.9145   7.2135

          k =-0.1000-0.5000 0.1000 (  3048 PWs)   bands (ev):

    -2.4922  -2.4868   4.0884   4.0928   4.9097   4.9160   7.2135

          k =-0.1000 0.5000-0.1000 (  3048 PWs)   bands (ev):

    -2.4922  -2.4868   4.0884   4.0928   4.9097   4.9160   7.2142

          k =-0.1000-0.3000 0.3000 (  3062 PWs)   bands (ev):

    -3.1803  -0.3575   1.0690   3.8024   3.9650   6.6873   7.1451

          k =-0.1000 0.3000-0.3000 (  3062 PWs)   bands (ev):

    -3.1803  -0.3575   1.0690   3.8024   3.9650   6.6872   7.1450

          k = 0.1000-0.3000-0.3000 (  3062 PWs)   bands (ev):

    -3.1803  -0.3575   1.0690   3.8023   3.9650   6.6871   7.1450

          k = 0.3000 0.1000-0.3000 (  3062 PWs)   bands (ev):

    -3.1803  -0.3575   1.0690   3.8023   3.9650   6.6872   7.1451

          k =-0.3000-0.1000-0.3000 (  3062 PWs)   bands (ev):

    -3.1803  -0.3575   1.0690   3.8023   3.9650   6.6872   7.1450

          k = 0.3000-0.1000 0.3000 (  3062 PWs)   bands (ev):

    -3.1803  -0.3575   1.0690   3.8023   3.9650   6.6872   7.1451

          k =-0.3000 0.1000 0.3000 (  3062 PWs)   bands (ev):

    -3.1803  -0.3575   1.0690   3.8023   3.9650   6.6872   7.1451

          k = 0.3000-0.3000 0.1000 (  3062 PWs)   bands (ev):

    -3.1803  -0.3575   1.0690   3.8024   3.9650   6.6872   7.1450

          k =-0.3000-0.3000-0.1000 (  3062 PWs)   bands (ev):

    -3.1803  -0.3575   1.0690   3.8023   3.9650   6.6872   7.1450

          k = 0.3000 0.3000-0.1000 (  3062 PWs)   bands (ev):

    -3.1803  -0.3575   1.0690   3.8023   3.9649   6.6872   7.1450

          k =-0.3000 0.3000 0.1000 (  3062 PWs)   bands (ev):

    -3.1803  -0.3575   1.0690   3.8024   3.9650   6.6871   7.1450

          k =-0.1000 0.3000 0.5000 (  3076 PWs)   bands (ev):

    -1.8422  -1.8416   1.8739   1.8745   5.2307   5.2312   7.9029

          k = 0.3000 0.1000 0.5000 (  3076 PWs)   bands (ev):

    -1.8422  -1.8416   1.8739   1.8745   5.2307   5.2312   7.9029

          k = 0.3000-0.1000-0.5000 (  3076 PWs)   bands (ev):

    -1.8422  -1.8416   1.8739   1.8745   5.2307   5.2312   7.9030

          k =-0.5000-0.3000 0.1000 (  3076 PWs)   bands (ev):

    -1.8432  -1.8406   1.8730   1.8754   5.2295   5.2323   7.9029

          k = 0.5000-0.3000-0.1000 (  3076 PWs)   bands (ev):

    -1.8432  -1.8406   1.8730   1.8754   5.2296   5.2324   7.9029

          k =-0.1000-0.5000 0.3000 (  3076 PWs)   bands (ev):

    -1.8445  -1.8394   1.8718   1.8766   5.2282   5.2337   7.9031

          k =-0.1000 0.5000-0.3000 (  3076 PWs)   bands (ev):

    -1.8445  -1.8394   1.8718   1.8766   5.2282   5.2337   7.9030

          k = 0.3000-0.5000 0.1000 (  3076 PWs)   bands (ev):

    -1.8445  -1.8394   1.8718   1.8766   5.2282   5.2337   7.9032

          k = 0.3000 0.5000-0.1000 (  3076 PWs)   bands (ev):

    -1.8445  -1.8394   1.8718   1.8766   5.2282   5.2337   7.9032

          k =-0.5000 0.1000 0.3000 (  3076 PWs)   bands (ev):

    -1.8432  -1.8406   1.8730   1.8754   5.2296   5.2324   7.9031

          k = 0.5000-0.1000 0.3000 (  3076 PWs)   bands (ev):

    -1.8432  -1.8406   1.8730   1.8754   5.2296   5.2323   7.9029

          k =-0.5000 0.1000 0.5000 (  3092 PWs)   bands (ev):

    -1.0110  -1.0109   0.4016   0.4016   6.0062   6.0063   7.1391

          k =-0.5000 0.5000 0.1000 (  3092 PWs)   bands (ev):

    -1.0111  -1.0109   0.4016   0.4017   6.0062   6.0063   7.1391

          k =-0.3000-0.3000 0.3000 (  3067 PWs)   bands (ev):

    -2.4999  -0.0904   1.7562   1.7562   3.6788   5.1422   5.1423

          k =-0.3000 0.3000-0.3000 (  3067 PWs)   bands (ev):

    -2.4999  -0.0904   1.7562   1.7562   3.6788   5.1422   5.1422

          k = 0.3000-0.3000-0.3000 (  3067 PWs)   bands (ev):

    -2.4999  -0.0904   1.7562   1.7562   3.6787   5.1422   5.1423

          k =-0.3000 0.3000 0.5000 (  3060 PWs)   bands (ev):

    -1.2106  -1.2100   2.1385   2.1392   3.1224   3.1228   6.0900

          k =-0.5000-0.3000 0.3000 (  3060 PWs)   bands (ev):

    -1.2115  -1.2090   2.1379   2.1398   3.1210   3.1242   6.0895

          k = 0.5000-0.3000-0.3000 (  3060 PWs)   bands (ev):

    -1.2115  -1.2090   2.1379   2.1398   3.1210   3.1243   6.0906

          k =-0.3000-0.5000 0.3000 (  3060 PWs)   bands (ev):

    -1.2126  -1.2079   2.1369   2.1408   3.1195   3.1257   6.0877

          k =-0.3000 0.5000-0.3000 (  3060 PWs)   bands (ev):

    -1.2126  -1.2079   2.1369   2.1408   3.1195   3.1257   6.0898

          k =-0.5000 0.3000 0.5000 (  3068 PWs)   bands (ev):

    -0.4339  -0.4337   1.0920   1.0921   3.7117   3.7118   4.5071

          k =-0.5000 0.5000 0.3000 (  3068 PWs)   bands (ev):

    -0.4339  -0.4337   1.0920   1.0921   3.7116   3.7118   4.5072

     the Fermi energy is     2.1483 ev

!    total energy              =     -78.85583173 Ry
     Harris-Foulkes estimate   =     -78.85583323 Ry
     estimated scf accuracy    <       0.00000061 Ry

     total all-electron energy =      -971.141393 Ry

     The total energy is the sum of the following terms:

     one-electron contribution =       3.56648535 Ry
     hartree contribution      =       0.10278233 Ry
     xc contribution           =      -4.62920851 Ry
     ewald contribution        =      -8.57905001 Ry
     one-center paw contrib.   =     -69.31805607 Ry
     smearing contrib. (-TS)   =       0.00121517 Ry

     convergence has been achieved in   6 iterations

     Forces acting on atoms (cartesian axes, Ry/au):

     atom    1 type  1   force =     0.00003752    0.00003067   -0.00000468
     atom    2 type  1   force =    -0.00003752   -0.00003067    0.00000468

     Total force =     0.000069     Total SCF correction =     0.000263
     SCF correction compared to forces is large: reduce conv_thr to get better values


     Computing stress (Cartesian axis) and pressure

          total   stress  (Ry/bohr**3)                   (kbar)     P=  -94.60
  -0.00064301   0.00000002  -0.00000004        -94.59      0.00     -0.01
   0.00000002  -0.00064313  -0.00000004          0.00    -94.61     -0.01
  -0.00000004  -0.00000004  -0.00064311         -0.01     -0.01    -94.60


     Writing output data file fe_scf_fcc_2.save/

     init_run     :      0.41s CPU      0.43s WALL (       1 calls)
     electrons    :      5.15s CPU      5.41s WALL (       1 calls)
     forces       :      0.09s CPU      0.09s WALL (       1 calls)
     stress       :      0.24s CPU      0.24s WALL (       1 calls)

     Called by init_run:
     wfcinit      :      0.30s CPU      0.30s WALL (       1 calls)
     potinit      :      0.03s CPU      0.04s WALL (       1 calls)
     hinit0       :      0.07s CPU      0.07s WALL (       1 calls)

     Called by electrons:
     c_bands      :      4.19s CPU      4.39s WALL (       7 calls)
     sum_band     :      0.74s CPU      0.79s WALL (       7 calls)
     v_of_rho     :      0.07s CPU      0.07s WALL (       7 calls)
     newd         :      0.03s CPU      0.03s WALL (       7 calls)
     PAW_pot      :      0.15s CPU      0.16s WALL (       7 calls)
     mix_rho      :      0.01s CPU      0.01s WALL (       7 calls)

     Called by c_bands:
     init_us_2    :      0.13s CPU      0.13s WALL (    1071 calls)
     cegterg      :      4.03s CPU      4.22s WALL (     441 calls)

     Called by sum_band:
     sum_band:bec :      0.00s CPU      0.00s WALL (     441 calls)
     addusdens    :      0.02s CPU      0.02s WALL (       7 calls)

     Called by *egterg:
     h_psi        :      3.47s CPU      3.64s WALL (    1463 calls)
     s_psi        :      0.12s CPU      0.13s WALL (    1463 calls)
     g_psi        :      0.01s CPU      0.01s WALL (     959 calls)
     cdiaghg      :      0.11s CPU      0.11s WALL (    1337 calls)

     Called by h_psi:
     h_psi:pot    :      3.46s CPU      3.62s WALL (    1463 calls)
     h_psi:calbec :      0.21s CPU      0.22s WALL (    1463 calls)
     vloc_psi     :      3.13s CPU      3.27s WALL (    1463 calls)
     add_vuspsi   :      0.12s CPU      0.13s WALL (    1463 calls)

     General routines
     calbec       :      0.40s CPU      0.41s WALL (    2219 calls)
     fft          :      0.05s CPU      0.05s WALL (     103 calls)
     ffts         :      0.00s CPU      0.00s WALL (       7 calls)
     fftw         :      3.43s CPU      3.60s WALL (   19601 calls)

     Parallel routines
     fft_scatt_xy :      0.37s CPU      0.38s WALL (   19711 calls)
     fft_scatt_yz :      1.28s CPU      1.35s WALL (   19711 calls)

     PWSCF        :      6.33s CPU      6.62s WALL


   This run was terminated on:  15:42:38  24Feb2020            

=------------------------------------------------------------------------------=
   JOB DONE.
=------------------------------------------------------------------------------=
