
     Program PWSCF v.6.4.1 starts on 24Feb2020 at 15:44:32 

     This program is part of the open-source Quantum ESPRESSO suite
     for quantum simulation of materials; please cite
         "P. Giannozzi et al., J. Phys.:Condens. Matter 21 395502 (2009);
         "P. Giannozzi et al., J. Phys.:Condens. Matter 29 465901 (2017);
          URL http://www.quantum-espresso.org", 
     in publications or presentations arising from this work. More details at
     http://www.quantum-espresso.org/quote

     Parallel version (MPI), running on     4 processors

     MPI processes distributed on     1 nodes
     R & G space division:  proc/nbgrp/npool/nimage =       4
     Reading input from /cloud/Code/python/py_pwscf_converge/src/example2/wd/runpwscf/file_10032.in
Warning: card &IONS ignored
Warning: card ION_DYNAMICS = 'BFGS', ignored
Warning: card / ignored
Warning: card &CELL ignored
Warning: card CELL_DYNAMICS = 'BFGS', ignored
Warning: card CELL_FACTOR = 2.0, ignored
Warning: card PRESS = 0.0, ignored
Warning: card / ignored

     Current dimensions of program PWSCF are:
     Max number of different atomic species (ntypx) = 10
     Max number of k-points (npk) =  40000
     Max angular momentum in pseudopotentials (lmaxx) =  3
               file Al.pbe-nl-kjpaw_psl.1.0.0.UPF: wavefunction(s)  3S 3P renormalized

     Subspace diagonalization in iterative solution of the eigenvalue problem:
     a serial algorithm will be used


     Parallelization info
     --------------------
     sticks:   dense  smooth     PW     G-vecs:    dense   smooth      PW
     Min         115     115     65                 1873     1873     809
     Max         117     117     66                 1875     1875     812
     Sum         465     465    261                 7497     7497    3239



     bravais-lattice index     =            0
     lattice parameter (alat)  =       7.6356  a.u.
     unit-cell volume          =     445.1737 (a.u.)^3
     number of atoms/cell      =            2
     number of atomic types    =            1
     number of electrons       =         6.00
     number of Kohn-Sham states=            7
     kinetic-energy cutoff     =      47.0000  Ry
     charge density cutoff     =     100.0000  Ry
     convergence threshold     =      1.0E-06
     mixing beta               =       0.1000
     number of iterations used =           10  TF        mixing
     Exchange-correlation      = SLA PW PBX PBC ( 1  4  3  4 0 0)

     celldm(1)=   7.635600  celldm(2)=   0.000000  celldm(3)=   0.000000
     celldm(4)=   0.000000  celldm(5)=   0.000000  celldm(6)=   0.000000

     crystal axes: (cart. coord. in units of alat)
               a(1) = (   1.000000   0.000000   0.000000 )  
               a(2) = (   0.000000   1.000000   0.000000 )  
               a(3) = (   0.000000   0.000000   1.000000 )  

     reciprocal axes: (cart. coord. in units 2 pi/alat)
               b(1) = (  1.000000  0.000000  0.000000 )  
               b(2) = (  0.000000  1.000000  0.000000 )  
               b(3) = (  0.000000  0.000000  1.000000 )  


     PseudoPot. # 1 for Al read from file:
     /opt/pp/Al.pbe-nl-kjpaw_psl.1.0.0.UPF
     MD5 check sum: 1b67f78b73fe58c7924490f171ce8a1e
     Pseudo is Projector augmented-wave + core cor, Zval =  3.0
     Generated using "atomic" code by A. Dal Corso v.6.3
     Shape of augmentation charge: PSQ
     Using radial grid of 1135 points,  4 beta functions with: 
                l(1) =   0
                l(2) =   0
                l(3) =   1
                l(4) =   1
     Q(r) pseudized with 0 coefficients 


     atomic species   valence    mass     pseudopotential
        Al             3.00    26.98200     Al( 1.00)

     No symmetry found



   Cartesian axes

     site n.     atom                  positions (alat units)
         1           Al  tau(   1) = (  -0.0000654   0.0000190   0.0001361  )
         2           Al  tau(   2) = (   0.5001592   0.4996200   0.5001406  )

     number of k points=    63  Marzari-Vanderbilt smearing, width (Ry)=  0.0200
                       cart. coord. in units 2pi/alat
        k(    1) = (   0.1000000   0.1000000   0.1000000), wk =   0.0320000
        k(    2) = (   0.1000000   0.1000000   0.3000000), wk =   0.0320000
        k(    3) = (   0.1000000   0.1000000  -0.5000000), wk =   0.0320000
        k(    4) = (   0.1000000   0.3000000   0.3000000), wk =   0.0320000
        k(    5) = (   0.1000000   0.3000000  -0.5000000), wk =   0.0320000
        k(    6) = (   0.1000000  -0.5000000  -0.5000000), wk =   0.0320000
        k(    7) = (   0.3000000   0.3000000   0.3000000), wk =   0.0320000
        k(    8) = (   0.3000000   0.3000000  -0.5000000), wk =   0.0320000
        k(    9) = (   0.3000000  -0.5000000  -0.5000000), wk =   0.0320000
        k(   10) = (  -0.5000000  -0.5000000  -0.5000000), wk =   0.0160000
        k(   11) = (  -0.1000000  -0.1000000   0.1000000), wk =   0.0320000
        k(   12) = (  -0.1000000   0.1000000  -0.1000000), wk =   0.0320000
        k(   13) = (   0.1000000  -0.1000000  -0.1000000), wk =   0.0320000
        k(   14) = (  -0.1000000  -0.1000000   0.3000000), wk =   0.0320000
        k(   15) = (  -0.1000000   0.1000000  -0.3000000), wk =   0.0320000
        k(   16) = (   0.1000000  -0.1000000  -0.3000000), wk =   0.0320000
        k(   17) = (   0.3000000  -0.1000000   0.1000000), wk =   0.0320000
        k(   18) = (  -0.3000000  -0.1000000  -0.1000000), wk =   0.0320000
        k(   19) = (   0.3000000   0.1000000  -0.1000000), wk =   0.0320000
        k(   20) = (  -0.3000000   0.1000000   0.1000000), wk =   0.0320000
        k(   21) = (  -0.1000000   0.3000000   0.1000000), wk =   0.0320000
        k(   22) = (  -0.1000000  -0.3000000  -0.1000000), wk =   0.0320000
        k(   23) = (   0.1000000   0.3000000  -0.1000000), wk =   0.0320000
        k(   24) = (   0.1000000  -0.3000000   0.1000000), wk =   0.0320000
        k(   25) = (  -0.1000000   0.1000000   0.5000000), wk =   0.0320000
        k(   26) = (  -0.5000000  -0.1000000   0.1000000), wk =   0.0320000
        k(   27) = (   0.5000000  -0.1000000  -0.1000000), wk =   0.0320000
        k(   28) = (  -0.1000000  -0.5000000   0.1000000), wk =   0.0320000
        k(   29) = (  -0.1000000   0.5000000  -0.1000000), wk =   0.0320000
        k(   30) = (  -0.1000000  -0.3000000   0.3000000), wk =   0.0320000
        k(   31) = (  -0.1000000   0.3000000  -0.3000000), wk =   0.0320000
        k(   32) = (   0.1000000  -0.3000000  -0.3000000), wk =   0.0320000
        k(   33) = (   0.3000000   0.1000000  -0.3000000), wk =   0.0320000
        k(   34) = (  -0.3000000  -0.1000000  -0.3000000), wk =   0.0320000
        k(   35) = (   0.3000000  -0.1000000   0.3000000), wk =   0.0320000
        k(   36) = (  -0.3000000   0.1000000   0.3000000), wk =   0.0320000
        k(   37) = (   0.3000000  -0.3000000   0.1000000), wk =   0.0320000
        k(   38) = (  -0.3000000  -0.3000000  -0.1000000), wk =   0.0320000
        k(   39) = (   0.3000000   0.3000000  -0.1000000), wk =   0.0320000
        k(   40) = (  -0.3000000   0.3000000   0.1000000), wk =   0.0320000
        k(   41) = (  -0.1000000   0.3000000   0.5000000), wk =   0.0320000
        k(   42) = (   0.3000000   0.1000000   0.5000000), wk =   0.0320000
        k(   43) = (   0.3000000  -0.1000000  -0.5000000), wk =   0.0320000
        k(   44) = (  -0.5000000  -0.3000000   0.1000000), wk =   0.0320000
        k(   45) = (   0.5000000  -0.3000000  -0.1000000), wk =   0.0320000
        k(   46) = (  -0.1000000  -0.5000000   0.3000000), wk =   0.0320000
        k(   47) = (  -0.1000000   0.5000000  -0.3000000), wk =   0.0320000
        k(   48) = (   0.3000000  -0.5000000   0.1000000), wk =   0.0320000
        k(   49) = (   0.3000000   0.5000000  -0.1000000), wk =   0.0320000
        k(   50) = (  -0.5000000   0.1000000   0.3000000), wk =   0.0320000
        k(   51) = (   0.5000000  -0.1000000   0.3000000), wk =   0.0320000
        k(   52) = (  -0.5000000   0.1000000   0.5000000), wk =   0.0320000
        k(   53) = (  -0.5000000   0.5000000   0.1000000), wk =   0.0320000
        k(   54) = (  -0.3000000  -0.3000000   0.3000000), wk =   0.0320000
        k(   55) = (  -0.3000000   0.3000000  -0.3000000), wk =   0.0320000
        k(   56) = (   0.3000000  -0.3000000  -0.3000000), wk =   0.0320000
        k(   57) = (  -0.3000000   0.3000000   0.5000000), wk =   0.0320000
        k(   58) = (  -0.5000000  -0.3000000   0.3000000), wk =   0.0320000
        k(   59) = (   0.5000000  -0.3000000  -0.3000000), wk =   0.0320000
        k(   60) = (  -0.3000000  -0.5000000   0.3000000), wk =   0.0320000
        k(   61) = (  -0.3000000   0.5000000  -0.3000000), wk =   0.0320000
        k(   62) = (  -0.5000000   0.3000000   0.5000000), wk =   0.0320000
        k(   63) = (  -0.5000000   0.5000000   0.3000000), wk =   0.0320000

     Dense  grid:     7497 G-vectors     FFT dimensions: (  25,  25,  25)

     Estimated max dynamical RAM per process >       7.19 MB

     Estimated total dynamical RAM >      28.75 MB

     Initial potential from superposition of free atoms

     starting charge    5.99542, renormalised to    6.00000
     Starting wfcs are    8 randomized atomic wfcs
     Checking if some PAW data can be deallocated... 

     total cpu time spent up to now is        0.7 secs

     Self-consistent Calculation

     iteration #  1     ecut=    47.00 Ry     beta= 0.10
     Davidson diagonalization with overlap
     ethr =  1.00E-02,  avg # of iterations =  3.3

     Threshold (ethr) on eigenvalues was too large:
     Diagonalizing with lowered threshold

     Davidson diagonalization with overlap
     ethr =  1.34E-04,  avg # of iterations =  2.7

     total cpu time spent up to now is        1.6 secs

     total energy              =     -78.85766416 Ry
     Harris-Foulkes estimate   =     -78.85795285 Ry
     estimated scf accuracy    <       0.00788195 Ry

     iteration #  2     ecut=    47.00 Ry     beta= 0.10
     Davidson diagonalization with overlap
     ethr =  1.31E-04,  avg # of iterations =  1.0

     total cpu time spent up to now is        1.9 secs

     total energy              =     -78.85553916 Ry
     Harris-Foulkes estimate   =     -78.85770496 Ry
     estimated scf accuracy    <       0.00688471 Ry

     iteration #  3     ecut=    47.00 Ry     beta= 0.10
     Davidson diagonalization with overlap
     ethr =  1.15E-04,  avg # of iterations =  1.0

     total cpu time spent up to now is        2.2 secs

     total energy              =     -78.85584209 Ry
     Harris-Foulkes estimate   =     -78.85591006 Ry
     estimated scf accuracy    <       0.00003333 Ry

     iteration #  4     ecut=    47.00 Ry     beta= 0.10
     Davidson diagonalization with overlap
     ethr =  5.55E-07,  avg # of iterations =  3.1

     total cpu time spent up to now is        2.7 secs

     total energy              =     -78.85582546 Ry
     Harris-Foulkes estimate   =     -78.85588541 Ry
     estimated scf accuracy    <       0.00001715 Ry

     iteration #  5     ecut=    47.00 Ry     beta= 0.10
     Davidson diagonalization with overlap
     ethr =  2.86E-07,  avg # of iterations =  2.0

     total cpu time spent up to now is        3.1 secs

     total energy              =     -78.85581791 Ry
     Harris-Foulkes estimate   =     -78.85582828 Ry
     estimated scf accuracy    <       0.00002068 Ry

     iteration #  6     ecut=    47.00 Ry     beta= 0.10
     Davidson diagonalization with overlap
     ethr =  2.86E-07,  avg # of iterations =  2.0

     total cpu time spent up to now is        3.4 secs

     End of self-consistent calculation

          k = 0.1000 0.1000 0.1000 (  2433 PWs)   bands (ev):

    -4.5732   1.2782   2.9239   2.9239   4.9371   7.2246   7.2246

          k = 0.1000 0.1000 0.3000 (  2416 PWs)   bands (ev):

    -3.8717  -0.5125   2.8390   3.5928   5.9638   5.9666   6.8170

          k = 0.1000 0.1000-0.5000 (  2418 PWs)   bands (ev):

    -2.4900  -2.4894   4.0901   4.0908   4.9125   4.9130   7.2136

          k = 0.1000 0.3000 0.3000 (  2433 PWs)   bands (ev):

    -3.1805  -0.3578   1.0689   3.8022   3.9649   6.6870   7.1449

          k = 0.1000 0.3000-0.5000 (  2426 PWs)   bands (ev):

    -1.8424  -1.8418   1.8738   1.8744   5.2306   5.2311   7.9028

          k = 0.1000-0.5000-0.5000 (  2424 PWs)   bands (ev):

    -1.0113  -1.0110   0.4015   0.4016   6.0059   6.0063   7.1390

          k = 0.3000 0.3000 0.3000 (  2410 PWs)   bands (ev):

    -2.5001  -0.0907   1.7561   1.7561   3.6785   5.1421   5.1422

          k = 0.3000 0.3000-0.5000 (  2410 PWs)   bands (ev):

    -1.2107  -1.2102   2.1384   2.1390   3.1223   3.1228   6.0899

          k = 0.3000-0.5000-0.5000 (  2420 PWs)   bands (ev):

    -0.4342  -0.4339   1.0919   1.0920   3.7114   3.7117   4.5071

          k =-0.5000-0.5000-0.5000 (  2440 PWs)   bands (ev):

     0.1762   0.1766   2.4633   2.4638   2.4668   2.4670   2.4701

          k =-0.1000-0.1000 0.1000 (  2433 PWs)   bands (ev):

    -4.5732   1.2783   2.9238   2.9239   4.9372   7.2246   7.2246

          k =-0.1000 0.1000-0.1000 (  2433 PWs)   bands (ev):

    -4.5732   1.2783   2.9238   2.9239   4.9372   7.2246   7.2247

          k = 0.1000-0.1000-0.1000 (  2433 PWs)   bands (ev):

    -4.5732   1.2783   2.9238   2.9239   4.9372   7.2246   7.2247

          k =-0.1000-0.1000 0.3000 (  2416 PWs)   bands (ev):

    -3.8717  -0.5125   2.8389   3.5928   5.9640   5.9666   6.8170

          k =-0.1000 0.1000-0.3000 (  2416 PWs)   bands (ev):

    -3.8717  -0.5125   2.8390   3.5928   5.9629   5.9677   6.8169

          k = 0.1000-0.1000-0.3000 (  2416 PWs)   bands (ev):

    -3.8717  -0.5125   2.8390   3.5928   5.9627   5.9678   6.8169

          k = 0.3000-0.1000 0.1000 (  2416 PWs)   bands (ev):

    -3.8717  -0.5125   2.8390   3.5927   5.9629   5.9676   6.8169

          k =-0.3000-0.1000-0.1000 (  2416 PWs)   bands (ev):

    -3.8717  -0.5125   2.8390   3.5928   5.9638   5.9666   6.8170

          k = 0.3000 0.1000-0.1000 (  2416 PWs)   bands (ev):

    -3.8717  -0.5125   2.8390   3.5927   5.9639   5.9666   6.8169

          k =-0.3000 0.1000 0.1000 (  2416 PWs)   bands (ev):

    -3.8717  -0.5125   2.8389   3.5928   5.9628   5.9677   6.8170

          k =-0.1000 0.3000 0.1000 (  2416 PWs)   bands (ev):

    -3.8717  -0.5125   2.8390   3.5928   5.9628   5.9677   6.8169

          k =-0.1000-0.3000-0.1000 (  2416 PWs)   bands (ev):

    -3.8717  -0.5125   2.8390   3.5928   5.9639   5.9666   6.8169

          k = 0.1000 0.3000-0.1000 (  2416 PWs)   bands (ev):

    -3.8717  -0.5125   2.8390   3.5928   5.9640   5.9666   6.8169

          k = 0.1000-0.3000 0.1000 (  2416 PWs)   bands (ev):

    -3.8717  -0.5125   2.8389   3.5928   5.9630   5.9676   6.8169

          k =-0.1000 0.1000 0.5000 (  2418 PWs)   bands (ev):

    -2.4900  -2.4894   4.0901   4.0908   4.9125   4.9130   7.2133

          k =-0.5000-0.1000 0.1000 (  2418 PWs)   bands (ev):

    -2.4911  -2.4883   4.0894   4.0916   4.9111   4.9143   7.2139

          k = 0.5000-0.1000-0.1000 (  2418 PWs)   bands (ev):

    -2.4911  -2.4883   4.0894   4.0915   4.9111   4.9144   7.2137

          k =-0.1000-0.5000 0.1000 (  2418 PWs)   bands (ev):

    -2.4924  -2.4870   4.0883   4.0927   4.9096   4.9158   7.2128

          k =-0.1000 0.5000-0.1000 (  2418 PWs)   bands (ev):

    -2.4924  -2.4870   4.0883   4.0926   4.9097   4.9159   7.2141

          k =-0.1000-0.3000 0.3000 (  2433 PWs)   bands (ev):

    -3.1805  -0.3577   1.0689   3.8022   3.9649   6.6870   7.1449

          k =-0.1000 0.3000-0.3000 (  2433 PWs)   bands (ev):

    -3.1805  -0.3577   1.0689   3.8022   3.9648   6.6870   7.1449

          k = 0.1000-0.3000-0.3000 (  2433 PWs)   bands (ev):

    -3.1805  -0.3578   1.0689   3.8022   3.9648   6.6870   7.1449

          k = 0.3000 0.1000-0.3000 (  2433 PWs)   bands (ev):

    -3.1805  -0.3577   1.0689   3.8022   3.9649   6.6870   7.1450

          k =-0.3000-0.1000-0.3000 (  2433 PWs)   bands (ev):

    -3.1805  -0.3577   1.0689   3.8022   3.9649   6.6870   7.1449

          k = 0.3000-0.1000 0.3000 (  2433 PWs)   bands (ev):

    -3.1805  -0.3577   1.0689   3.8022   3.9648   6.6870   7.1449

          k =-0.3000 0.1000 0.3000 (  2433 PWs)   bands (ev):

    -3.1805  -0.3577   1.0689   3.8022   3.9649   6.6870   7.1449

          k = 0.3000-0.3000 0.1000 (  2433 PWs)   bands (ev):

    -3.1805  -0.3577   1.0689   3.8022   3.9648   6.6870   7.1449

          k =-0.3000-0.3000-0.1000 (  2433 PWs)   bands (ev):

    -3.1805  -0.3577   1.0689   3.8022   3.9649   6.6870   7.1448

          k = 0.3000 0.3000-0.1000 (  2433 PWs)   bands (ev):

    -3.1805  -0.3577   1.0689   3.8022   3.9648   6.6870   7.1449

          k =-0.3000 0.3000 0.1000 (  2433 PWs)   bands (ev):

    -3.1805  -0.3577   1.0689   3.8022   3.9649   6.6870   7.1449

          k =-0.1000 0.3000 0.5000 (  2426 PWs)   bands (ev):

    -1.8424  -1.8418   1.8738   1.8744   5.2305   5.2311   7.9029

          k = 0.3000 0.1000 0.5000 (  2426 PWs)   bands (ev):

    -1.8424  -1.8418   1.8738   1.8744   5.2306   5.2311   7.9027

          k = 0.3000-0.1000-0.5000 (  2426 PWs)   bands (ev):

    -1.8424  -1.8418   1.8738   1.8744   5.2306   5.2311   7.9029

          k =-0.5000-0.3000 0.1000 (  2426 PWs)   bands (ev):

    -1.8434  -1.8408   1.8728   1.8753   5.2294   5.2322   7.9029

          k = 0.5000-0.3000-0.1000 (  2426 PWs)   bands (ev):

    -1.8434  -1.8408   1.8728   1.8753   5.2294   5.2322   7.9028

          k =-0.1000-0.5000 0.3000 (  2426 PWs)   bands (ev):

    -1.8446  -1.8396   1.8717   1.8765   5.2281   5.2335   7.9028

          k =-0.1000 0.5000-0.3000 (  2426 PWs)   bands (ev):

    -1.8446  -1.8396   1.8717   1.8765   5.2281   5.2335   7.9029

          k = 0.3000-0.5000 0.1000 (  2426 PWs)   bands (ev):

    -1.8446  -1.8396   1.8717   1.8765   5.2281   5.2335   7.9029

          k = 0.3000 0.5000-0.1000 (  2426 PWs)   bands (ev):

    -1.8446  -1.8396   1.8717   1.8765   5.2281   5.2335   7.9028

          k =-0.5000 0.1000 0.3000 (  2426 PWs)   bands (ev):

    -1.8434  -1.8408   1.8728   1.8753   5.2294   5.2322   7.9027

          k = 0.5000-0.1000 0.3000 (  2426 PWs)   bands (ev):

    -1.8434  -1.8408   1.8728   1.8753   5.2294   5.2322   7.9026

          k =-0.5000 0.1000 0.5000 (  2424 PWs)   bands (ev):

    -1.0113  -1.0110   0.4015   0.4016   6.0060   6.0062   7.1390

          k =-0.5000 0.5000 0.1000 (  2424 PWs)   bands (ev):

    -1.0113  -1.0110   0.4015   0.4016   6.0060   6.0062   7.1390

          k =-0.3000-0.3000 0.3000 (  2410 PWs)   bands (ev):

    -2.5001  -0.0906   1.7560   1.7561   3.6786   5.1421   5.1422

          k =-0.3000 0.3000-0.3000 (  2410 PWs)   bands (ev):

    -2.5001  -0.0907   1.7561   1.7561   3.6786   5.1421   5.1421

          k = 0.3000-0.3000-0.3000 (  2410 PWs)   bands (ev):

    -2.5001  -0.0907   1.7561   1.7561   3.6786   5.1421   5.1422

          k =-0.3000 0.3000 0.5000 (  2410 PWs)   bands (ev):

    -1.2107  -1.2102   2.1384   2.1390   3.1223   3.1227   6.0894

          k =-0.5000-0.3000 0.3000 (  2410 PWs)   bands (ev):

    -1.2117  -1.2092   2.1378   2.1397   3.1209   3.1241   6.0893

          k = 0.5000-0.3000-0.3000 (  2410 PWs)   bands (ev):

    -1.2117  -1.2092   2.1377   2.1396   3.1209   3.1242   6.0895

          k =-0.3000-0.5000 0.3000 (  2410 PWs)   bands (ev):

    -1.2128  -1.2081   2.1368   2.1406   3.1194   3.1255   6.0903

          k =-0.3000 0.5000-0.3000 (  2410 PWs)   bands (ev):

    -1.2128  -1.2081   2.1368   2.1406   3.1195   3.1256   6.0886

          k =-0.5000 0.3000 0.5000 (  2420 PWs)   bands (ev):

    -0.4342  -0.4339   1.0919   1.0920   3.7116   3.7116   4.5070

          k =-0.5000 0.5000 0.3000 (  2420 PWs)   bands (ev):

    -0.4342  -0.4339   1.0919   1.0920   3.7115   3.7116   4.5070

     the Fermi energy is     2.1482 ev

!    total energy              =     -78.85581839 Ry
     Harris-Foulkes estimate   =     -78.85581992 Ry
     estimated scf accuracy    <       0.00000067 Ry

     total all-electron energy =      -971.141379 Ry

     The total energy is the sum of the following terms:

     one-electron contribution =       3.56646725 Ry
     hartree contribution      =       0.10278677 Ry
     xc contribution           =      -4.62918680 Ry
     ewald contribution        =      -8.57905001 Ry
     one-center paw contrib.   =     -69.31805043 Ry
     smearing contrib. (-TS)   =       0.00121484 Ry

     convergence has been achieved in   6 iterations

     Forces acting on atoms (cartesian axes, Ry/au):

     atom    1 type  1   force =     0.00003963    0.00003858   -0.00000668
     atom    2 type  1   force =    -0.00003963   -0.00003858    0.00000668

     Total force =     0.000079     Total SCF correction =     0.000270
     SCF correction compared to forces is large: reduce conv_thr to get better values


     Computing stress (Cartesian axis) and pressure

          total   stress  (Ry/bohr**3)                   (kbar)     P=  -94.58
  -0.00064292   0.00000001  -0.00000008        -94.58      0.00     -0.01
   0.00000001  -0.00064296  -0.00000004          0.00    -94.58     -0.01
  -0.00000008  -0.00000004  -0.00064287         -0.01     -0.01    -94.57


     Writing output data file fe_scf_fcc_2.save/

     init_run     :      0.23s CPU      0.24s WALL (       1 calls)
     electrons    :      2.50s CPU      2.71s WALL (       1 calls)
     forces       :      0.06s CPU      0.06s WALL (       1 calls)
     stress       :      0.16s CPU      0.18s WALL (       1 calls)

     Called by init_run:
     wfcinit      :      0.14s CPU      0.15s WALL (       1 calls)
     potinit      :      0.03s CPU      0.03s WALL (       1 calls)
     hinit0       :      0.05s CPU      0.05s WALL (       1 calls)

     Called by electrons:
     c_bands      :      2.03s CPU      2.18s WALL (       7 calls)
     sum_band     :      0.31s CPU      0.33s WALL (       7 calls)
     v_of_rho     :      0.02s CPU      0.02s WALL (       7 calls)
     newd         :      0.01s CPU      0.01s WALL (       7 calls)
     PAW_pot      :      0.17s CPU      0.19s WALL (       7 calls)
     mix_rho      :      0.00s CPU      0.00s WALL (       7 calls)

     Called by c_bands:
     init_us_2    :      0.11s CPU      0.11s WALL (    1071 calls)
     cegterg      :      1.89s CPU      2.04s WALL (     441 calls)

     Called by sum_band:
     sum_band:bec :      0.00s CPU      0.00s WALL (     441 calls)
     addusdens    :      0.01s CPU      0.01s WALL (       7 calls)

     Called by *egterg:
     h_psi        :      1.31s CPU      1.41s WALL (    1454 calls)
     s_psi        :      0.11s CPU      0.12s WALL (    1454 calls)
     g_psi        :      0.01s CPU      0.01s WALL (     950 calls)
     cdiaghg      :      0.10s CPU      0.11s WALL (    1328 calls)

     Called by h_psi:
     h_psi:pot    :      1.30s CPU      1.40s WALL (    1454 calls)
     h_psi:calbec :      0.18s CPU      0.19s WALL (    1454 calls)
     vloc_psi     :      1.02s CPU      1.10s WALL (    1454 calls)
     add_vuspsi   :      0.11s CPU      0.12s WALL (    1454 calls)

     General routines
     calbec       :      0.29s CPU      0.31s WALL (    2210 calls)
     fft          :      0.01s CPU      0.01s WALL (     103 calls)
     ffts         :      0.00s CPU      0.00s WALL (       7 calls)
     fftw         :      1.11s CPU      1.19s WALL (   19563 calls)

     Parallel routines
     fft_scatt_xy :      0.14s CPU      0.15s WALL (   19673 calls)
     fft_scatt_yz :      0.49s CPU      0.52s WALL (   19673 calls)

     PWSCF        :      3.46s CPU      3.73s WALL


   This run was terminated on:  15:44:36  24Feb2020            

=------------------------------------------------------------------------------=
   JOB DONE.
=------------------------------------------------------------------------------=
