
     Program PWSCF v.6.4.1 starts on 24Feb2020 at 15:49:35 

     This program is part of the open-source Quantum ESPRESSO suite
     for quantum simulation of materials; please cite
         "P. Giannozzi et al., J. Phys.:Condens. Matter 21 395502 (2009);
         "P. Giannozzi et al., J. Phys.:Condens. Matter 29 465901 (2017);
          URL http://www.quantum-espresso.org", 
     in publications or presentations arising from this work. More details at
     http://www.quantum-espresso.org/quote

     Parallel version (MPI), running on     4 processors

     MPI processes distributed on     1 nodes
     R & G space division:  proc/nbgrp/npool/nimage =       4
     Reading input from /cloud/Code/python/py_pwscf_converge/src/example2/wd/runpwscf/file_10110.in
Warning: card &IONS ignored
Warning: card ION_DYNAMICS = 'BFGS', ignored
Warning: card / ignored
Warning: card &CELL ignored
Warning: card CELL_DYNAMICS = 'BFGS', ignored
Warning: card CELL_FACTOR = 2.0, ignored
Warning: card PRESS = 0.0, ignored
Warning: card / ignored

     Current dimensions of program PWSCF are:
     Max number of different atomic species (ntypx) = 10
     Max number of k-points (npk) =  40000
     Max angular momentum in pseudopotentials (lmaxx) =  3
               file Al.pbe-nl-kjpaw_psl.1.0.0.UPF: wavefunction(s)  3S 3P renormalized

     Subspace diagonalization in iterative solution of the eigenvalue problem:
     a serial algorithm will be used


     Parallelization info
     --------------------
     sticks:   dense  smooth     PW     G-vecs:    dense   smooth      PW
     Min         210     210    109                 4509     4509    1743
     Max         213     213    110                 4510     4510    1746
     Sum         845     845    437                18037    18037    6979



     bravais-lattice index     =            0
     lattice parameter (alat)  =       7.6356  a.u.
     unit-cell volume          =     445.1737 (a.u.)^3
     number of atoms/cell      =            2
     number of atomic types    =            1
     number of electrons       =         6.00
     number of Kohn-Sham states=            7
     kinetic-energy cutoff     =      85.0000  Ry
     charge density cutoff     =     180.0000  Ry
     convergence threshold     =      1.0E-06
     mixing beta               =       0.1000
     number of iterations used =           10  TF        mixing
     Exchange-correlation      = SLA PW PBX PBC ( 1  4  3  4 0 0)

     celldm(1)=   7.635600  celldm(2)=   0.000000  celldm(3)=   0.000000
     celldm(4)=   0.000000  celldm(5)=   0.000000  celldm(6)=   0.000000

     crystal axes: (cart. coord. in units of alat)
               a(1) = (   1.000000   0.000000   0.000000 )  
               a(2) = (   0.000000   1.000000   0.000000 )  
               a(3) = (   0.000000   0.000000   1.000000 )  

     reciprocal axes: (cart. coord. in units 2 pi/alat)
               b(1) = (  1.000000  0.000000  0.000000 )  
               b(2) = (  0.000000  1.000000  0.000000 )  
               b(3) = (  0.000000  0.000000  1.000000 )  


     PseudoPot. # 1 for Al read from file:
     /opt/pp/Al.pbe-nl-kjpaw_psl.1.0.0.UPF
     MD5 check sum: 1b67f78b73fe58c7924490f171ce8a1e
     Pseudo is Projector augmented-wave + core cor, Zval =  3.0
     Generated using "atomic" code by A. Dal Corso v.6.3
     Shape of augmentation charge: PSQ
     Using radial grid of 1135 points,  4 beta functions with: 
                l(1) =   0
                l(2) =   0
                l(3) =   1
                l(4) =   1
     Q(r) pseudized with 0 coefficients 


     atomic species   valence    mass     pseudopotential
        Al             3.00    26.98200     Al( 1.00)

     No symmetry found



   Cartesian axes

     site n.     atom                  positions (alat units)
         1           Al  tau(   1) = (  -0.0000654   0.0000190   0.0001361  )
         2           Al  tau(   2) = (   0.5001592   0.4996200   0.5001406  )

     number of k points=    32  Marzari-Vanderbilt smearing, width (Ry)=  0.0200
                       cart. coord. in units 2pi/alat
        k(    1) = (   0.1250000   0.1250000   0.1250000), wk =   0.0625000
        k(    2) = (   0.1250000   0.1250000   0.3750000), wk =   0.0625000
        k(    3) = (   0.1250000   0.3750000   0.3750000), wk =   0.0625000
        k(    4) = (   0.3750000   0.3750000   0.3750000), wk =   0.0625000
        k(    5) = (  -0.1250000  -0.1250000   0.1250000), wk =   0.0625000
        k(    6) = (  -0.1250000   0.1250000  -0.1250000), wk =   0.0625000
        k(    7) = (   0.1250000  -0.1250000  -0.1250000), wk =   0.0625000
        k(    8) = (  -0.1250000  -0.1250000   0.3750000), wk =   0.0625000
        k(    9) = (  -0.1250000   0.1250000  -0.3750000), wk =   0.0625000
        k(   10) = (   0.1250000  -0.1250000  -0.3750000), wk =   0.0625000
        k(   11) = (   0.3750000  -0.1250000   0.1250000), wk =   0.0625000
        k(   12) = (  -0.3750000  -0.1250000  -0.1250000), wk =   0.0625000
        k(   13) = (   0.3750000   0.1250000  -0.1250000), wk =   0.0625000
        k(   14) = (  -0.3750000   0.1250000   0.1250000), wk =   0.0625000
        k(   15) = (  -0.1250000   0.3750000   0.1250000), wk =   0.0625000
        k(   16) = (  -0.1250000  -0.3750000  -0.1250000), wk =   0.0625000
        k(   17) = (   0.1250000   0.3750000  -0.1250000), wk =   0.0625000
        k(   18) = (   0.1250000  -0.3750000   0.1250000), wk =   0.0625000
        k(   19) = (  -0.1250000  -0.3750000   0.3750000), wk =   0.0625000
        k(   20) = (  -0.1250000   0.3750000  -0.3750000), wk =   0.0625000
        k(   21) = (   0.1250000  -0.3750000  -0.3750000), wk =   0.0625000
        k(   22) = (   0.3750000   0.1250000  -0.3750000), wk =   0.0625000
        k(   23) = (  -0.3750000  -0.1250000  -0.3750000), wk =   0.0625000
        k(   24) = (   0.3750000  -0.1250000   0.3750000), wk =   0.0625000
        k(   25) = (  -0.3750000   0.1250000   0.3750000), wk =   0.0625000
        k(   26) = (   0.3750000  -0.3750000   0.1250000), wk =   0.0625000
        k(   27) = (  -0.3750000  -0.3750000  -0.1250000), wk =   0.0625000
        k(   28) = (   0.3750000   0.3750000  -0.1250000), wk =   0.0625000
        k(   29) = (  -0.3750000   0.3750000   0.1250000), wk =   0.0625000
        k(   30) = (  -0.3750000  -0.3750000   0.3750000), wk =   0.0625000
        k(   31) = (  -0.3750000   0.3750000  -0.3750000), wk =   0.0625000
        k(   32) = (   0.3750000  -0.3750000  -0.3750000), wk =   0.0625000

     Dense  grid:    18037 G-vectors     FFT dimensions: (  36,  36,  36)

     Estimated max dynamical RAM per process >      12.31 MB

     Estimated total dynamical RAM >      49.25 MB

     Initial potential from superposition of free atoms

     starting charge    5.99542, renormalised to    6.00000
     Starting wfcs are    8 randomized atomic wfcs
     Checking if some PAW data can be deallocated... 

     total cpu time spent up to now is        0.8 secs

     Self-consistent Calculation

     iteration #  1     ecut=    85.00 Ry     beta= 0.10
     Davidson diagonalization with overlap
     ethr =  1.00E-02,  avg # of iterations =  2.9

     Threshold (ethr) on eigenvalues was too large:
     Diagonalizing with lowered threshold

     Davidson diagonalization with overlap
     ethr =  1.38E-04,  avg # of iterations =  2.7

     total cpu time spent up to now is        2.2 secs

     total energy              =     -78.84838439 Ry
     Harris-Foulkes estimate   =     -78.84867787 Ry
     estimated scf accuracy    <       0.00801254 Ry

     iteration #  2     ecut=    85.00 Ry     beta= 0.10
     Davidson diagonalization with overlap
     ethr =  1.34E-04,  avg # of iterations =  1.0

     total cpu time spent up to now is        2.7 secs

     total energy              =     -78.84620485 Ry
     Harris-Foulkes estimate   =     -78.84841888 Ry
     estimated scf accuracy    <       0.00702190 Ry

     iteration #  3     ecut=    85.00 Ry     beta= 0.10
     Davidson diagonalization with overlap
     ethr =  1.17E-04,  avg # of iterations =  1.0

     total cpu time spent up to now is        3.2 secs

     total energy              =     -78.84653310 Ry
     Harris-Foulkes estimate   =     -78.84660214 Ry
     estimated scf accuracy    <       0.00004640 Ry

     iteration #  4     ecut=    85.00 Ry     beta= 0.10
     Davidson diagonalization with overlap
     ethr =  7.73E-07,  avg # of iterations =  3.5

     total cpu time spent up to now is        4.1 secs

     total energy              =     -78.84650768 Ry
     Harris-Foulkes estimate   =     -78.84658066 Ry
     estimated scf accuracy    <       0.00002127 Ry

     iteration #  5     ecut=    85.00 Ry     beta= 0.10
     Davidson diagonalization with overlap
     ethr =  3.55E-07,  avg # of iterations =  2.0

     total cpu time spent up to now is        4.8 secs

     total energy              =     -78.84648948 Ry
     Harris-Foulkes estimate   =     -78.84651227 Ry
     estimated scf accuracy    <       0.00003884 Ry

     iteration #  6     ecut=    85.00 Ry     beta= 0.10
     Davidson diagonalization with overlap
     ethr =  3.55E-07,  avg # of iterations =  2.0

     total cpu time spent up to now is        5.4 secs

     End of self-consistent calculation

          k = 0.1250 0.1250 0.1250 (  5878 PWs)   bands (ev):

    -4.4258   1.0097   2.7003   2.7003   5.4529   7.3961   7.7332

          k = 0.1250 0.1250 0.3750 (  5893 PWs)   bands (ev):

    -3.3353  -1.2267   2.9066   3.7496   4.8824   5.8006   6.8313

          k = 0.1250 0.3750 0.3750 (  5895 PWs)   bands (ev):

    -2.2810  -0.7139   0.7113   2.2454   4.4300   5.9915   7.0165

          k = 0.3750 0.3750 0.3750 (  5893 PWs)   bands (ev):

    -1.2692  -0.1195   1.7871   1.7871   2.5351   3.9194   3.9195

          k =-0.1250-0.1250 0.1250 (  5878 PWs)   bands (ev):

    -4.4258   1.0097   2.7003   2.7003   5.4529   7.3962   7.7332

          k =-0.1250 0.1250-0.1250 (  5878 PWs)   bands (ev):

    -4.4258   1.0097   2.7003   2.7003   5.4530   7.3962   7.7331

          k = 0.1250-0.1250-0.1250 (  5878 PWs)   bands (ev):

    -4.4258   1.0097   2.7003   2.7003   5.4529   7.3962   7.7332

          k =-0.1250-0.1250 0.3750 (  5893 PWs)   bands (ev):

    -3.3353  -1.2267   2.9066   3.7496   4.8824   5.8006   6.8313

          k =-0.1250 0.1250-0.3750 (  5893 PWs)   bands (ev):

    -3.3353  -1.2267   2.9066   3.7496   4.8824   5.8005   6.8313

          k = 0.1250-0.1250-0.3750 (  5893 PWs)   bands (ev):

    -3.3353  -1.2267   2.9067   3.7496   4.8824   5.8005   6.8313

          k = 0.3750-0.1250 0.1250 (  5893 PWs)   bands (ev):

    -3.3353  -1.2266   2.9066   3.7496   4.8824   5.8005   6.8313

          k =-0.3750-0.1250-0.1250 (  5893 PWs)   bands (ev):

    -3.3353  -1.2266   2.9066   3.7496   4.8824   5.8006   6.8313

          k = 0.3750 0.1250-0.1250 (  5893 PWs)   bands (ev):

    -3.3353  -1.2266   2.9067   3.7496   4.8824   5.8005   6.8313

          k =-0.3750 0.1250 0.1250 (  5893 PWs)   bands (ev):

    -3.3353  -1.2266   2.9066   3.7496   4.8824   5.8006   6.8313

          k =-0.1250 0.3750 0.1250 (  5893 PWs)   bands (ev):

    -3.3353  -1.2266   2.9066   3.7496   4.8824   5.8005   6.8313

          k =-0.1250-0.3750-0.1250 (  5893 PWs)   bands (ev):

    -3.3353  -1.2266   2.9067   3.7496   4.8824   5.8005   6.8313

          k = 0.1250 0.3750-0.1250 (  5893 PWs)   bands (ev):

    -3.3353  -1.2266   2.9066   3.7496   4.8824   5.8005   6.8313

          k = 0.1250-0.3750 0.1250 (  5893 PWs)   bands (ev):

    -3.3353  -1.2266   2.9066   3.7496   4.8824   5.8005   6.8313

          k =-0.1250-0.3750 0.3750 (  5895 PWs)   bands (ev):

    -2.2810  -0.7139   0.7112   2.2455   4.4300   5.9915   7.0164

          k =-0.1250 0.3750-0.3750 (  5895 PWs)   bands (ev):

    -2.2810  -0.7139   0.7112   2.2455   4.4299   5.9915   7.0164

          k = 0.1250-0.3750-0.3750 (  5895 PWs)   bands (ev):

    -2.2810  -0.7139   0.7113   2.2454   4.4299   5.9915   7.0165

          k = 0.3750 0.1250-0.3750 (  5895 PWs)   bands (ev):

    -2.2810  -0.7139   0.7113   2.2455   4.4300   5.9915   7.0164

          k =-0.3750-0.1250-0.3750 (  5895 PWs)   bands (ev):

    -2.2810  -0.7139   0.7113   2.2454   4.4300   5.9915   7.0164

          k = 0.3750-0.1250 0.3750 (  5895 PWs)   bands (ev):

    -2.2810  -0.7139   0.7113   2.2455   4.4299   5.9915   7.0164

          k =-0.3750 0.1250 0.3750 (  5895 PWs)   bands (ev):

    -2.2810  -0.7139   0.7113   2.2455   4.4300   5.9915   7.0165

          k = 0.3750-0.3750 0.1250 (  5895 PWs)   bands (ev):

    -2.2810  -0.7139   0.7113   2.2455   4.4299   5.9915   7.0164

          k =-0.3750-0.3750-0.1250 (  5895 PWs)   bands (ev):

    -2.2810  -0.7139   0.7113   2.2454   4.4299   5.9915   7.0165

          k = 0.3750 0.3750-0.1250 (  5895 PWs)   bands (ev):

    -2.2810  -0.7139   0.7113   2.2454   4.4299   5.9915   7.0165

          k =-0.3750 0.3750 0.1250 (  5895 PWs)   bands (ev):

    -2.2810  -0.7139   0.7113   2.2455   4.4300   5.9915   7.0164

          k =-0.3750-0.3750 0.3750 (  5893 PWs)   bands (ev):

    -1.2692  -0.1195   1.7870   1.7871   2.5351   3.9194   3.9195

          k =-0.3750 0.3750-0.3750 (  5893 PWs)   bands (ev):

    -1.2692  -0.1195   1.7871   1.7871   2.5351   3.9194   3.9194

          k = 0.3750-0.3750-0.3750 (  5893 PWs)   bands (ev):

    -1.2692  -0.1195   1.7871   1.7871   2.5351   3.9194   3.9195

     the Fermi energy is     2.4388 ev

!    total energy              =     -78.84649114 Ry
     Harris-Foulkes estimate   =     -78.84649308 Ry
     estimated scf accuracy    <       0.00000070 Ry

     total all-electron energy =      -971.132052 Ry

     The total energy is the sum of the following terms:

     one-electron contribution =       3.57738666 Ry
     hartree contribution      =       0.10229127 Ry
     xc contribution           =      -4.62868567 Ry
     ewald contribution        =      -8.57905004 Ry
     one-center paw contrib.   =     -69.31770522 Ry
     smearing contrib. (-TS)   =      -0.00072814 Ry

     convergence has been achieved in   6 iterations

     Forces acting on atoms (cartesian axes, Ry/au):

     atom    1 type  1   force =     0.00004687   -0.00002675    0.00000466
     atom    2 type  1   force =    -0.00004687    0.00002675   -0.00000466

     Total force =     0.000077     Total SCF correction =     0.000191
     SCF correction compared to forces is large: reduce conv_thr to get better values


     Computing stress (Cartesian axis) and pressure

          total   stress  (Ry/bohr**3)                   (kbar)     P=  -93.04
  -0.00063246   0.00000001  -0.00000001        -93.04      0.00     -0.00
   0.00000001  -0.00063246  -0.00000003          0.00    -93.04     -0.00
  -0.00000001  -0.00000003  -0.00063244         -0.00     -0.00    -93.04


     Writing output data file fe_scf_fcc_2.save/

     init_run     :      0.33s CPU      0.35s WALL (       1 calls)
     electrons    :      4.52s CPU      4.65s WALL (       1 calls)
     forces       :      0.09s CPU      0.10s WALL (       1 calls)
     stress       :      0.25s CPU      0.25s WALL (       1 calls)

     Called by init_run:
     wfcinit      :      0.21s CPU      0.23s WALL (       1 calls)
     potinit      :      0.04s CPU      0.04s WALL (       1 calls)
     hinit0       :      0.08s CPU      0.08s WALL (       1 calls)

     Called by electrons:
     c_bands      :      3.65s CPU      3.75s WALL (       7 calls)
     sum_band     :      0.62s CPU      0.65s WALL (       7 calls)
     v_of_rho     :      0.06s CPU      0.06s WALL (       7 calls)
     newd         :      0.02s CPU      0.02s WALL (       7 calls)
     PAW_pot      :      0.19s CPU      0.20s WALL (       7 calls)
     mix_rho      :      0.01s CPU      0.01s WALL (       7 calls)

     Called by c_bands:
     init_us_2    :      0.15s CPU      0.15s WALL (     544 calls)
     cegterg      :      3.46s CPU      3.55s WALL (     224 calls)

     Called by sum_band:
     sum_band:bec :      0.00s CPU      0.00s WALL (     224 calls)
     addusdens    :      0.01s CPU      0.02s WALL (       7 calls)

     Called by *egterg:
     h_psi        :      2.71s CPU      2.80s WALL (     742 calls)
     s_psi        :      0.17s CPU      0.17s WALL (     742 calls)
     g_psi        :      0.02s CPU      0.02s WALL (     486 calls)
     cdiaghg      :      0.08s CPU      0.08s WALL (     678 calls)

     Called by h_psi:
     h_psi:pot    :      2.69s CPU      2.78s WALL (     742 calls)
     h_psi:calbec :      0.24s CPU      0.25s WALL (     742 calls)
     vloc_psi     :      2.27s CPU      2.35s WALL (     742 calls)
     add_vuspsi   :      0.17s CPU      0.17s WALL (     742 calls)

     General routines
     calbec       :      0.42s CPU      0.43s WALL (    1126 calls)
     fft          :      0.04s CPU      0.04s WALL (     103 calls)
     ffts         :      0.00s CPU      0.01s WALL (       7 calls)
     fftw         :      2.55s CPU      2.63s WALL (   10168 calls)

     Parallel routines
     fft_scatt_xy :      0.23s CPU      0.24s WALL (   10278 calls)
     fft_scatt_yz :      0.75s CPU      0.78s WALL (   10278 calls)

     PWSCF        :      5.62s CPU      5.83s WALL


   This run was terminated on:  15:49:41  24Feb2020            

=------------------------------------------------------------------------------=
   JOB DONE.
=------------------------------------------------------------------------------=
