
     Program PWSCF v.6.4.1 starts on 24Feb2020 at 15:44:43 

     This program is part of the open-source Quantum ESPRESSO suite
     for quantum simulation of materials; please cite
         "P. Giannozzi et al., J. Phys.:Condens. Matter 21 395502 (2009);
         "P. Giannozzi et al., J. Phys.:Condens. Matter 29 465901 (2017);
          URL http://www.quantum-espresso.org", 
     in publications or presentations arising from this work. More details at
     http://www.quantum-espresso.org/quote

     Parallel version (MPI), running on     4 processors

     MPI processes distributed on     1 nodes
     R & G space division:  proc/nbgrp/npool/nimage =       4
     Reading input from /cloud/Code/python/py_pwscf_converge/src/example2/wd/runpwscf/file_10034.in
Warning: card &IONS ignored
Warning: card ION_DYNAMICS = 'BFGS', ignored
Warning: card / ignored
Warning: card &CELL ignored
Warning: card CELL_DYNAMICS = 'BFGS', ignored
Warning: card CELL_FACTOR = 2.0, ignored
Warning: card PRESS = 0.0, ignored
Warning: card / ignored

     Current dimensions of program PWSCF are:
     Max number of different atomic species (ntypx) = 10
     Max number of k-points (npk) =  40000
     Max angular momentum in pseudopotentials (lmaxx) =  3
               file Al.pbe-nl-kjpaw_psl.1.0.0.UPF: wavefunction(s)  3S 3P renormalized

     Subspace diagonalization in iterative solution of the eigenvalue problem:
     a serial algorithm will be used


     Parallelization info
     --------------------
     sticks:   dense  smooth     PW     G-vecs:    dense   smooth      PW
     Min         115     115     35                 1873     1873     326
     Max         117     117     37                 1875     1875     329
     Sum         465     465    145                 7497     7497    1309



     bravais-lattice index     =            0
     lattice parameter (alat)  =       7.6356  a.u.
     unit-cell volume          =     445.1737 (a.u.)^3
     number of atoms/cell      =            2
     number of atomic types    =            1
     number of electrons       =         6.00
     number of Kohn-Sham states=            7
     kinetic-energy cutoff     =      25.0000  Ry
     charge density cutoff     =     100.0000  Ry
     convergence threshold     =      1.0E-06
     mixing beta               =       0.1000
     number of iterations used =           10  TF        mixing
     Exchange-correlation      = SLA PW PBX PBC ( 1  4  3  4 0 0)

     celldm(1)=   7.635600  celldm(2)=   0.000000  celldm(3)=   0.000000
     celldm(4)=   0.000000  celldm(5)=   0.000000  celldm(6)=   0.000000

     crystal axes: (cart. coord. in units of alat)
               a(1) = (   1.000000   0.000000   0.000000 )  
               a(2) = (   0.000000   1.000000   0.000000 )  
               a(3) = (   0.000000   0.000000   1.000000 )  

     reciprocal axes: (cart. coord. in units 2 pi/alat)
               b(1) = (  1.000000  0.000000  0.000000 )  
               b(2) = (  0.000000  1.000000  0.000000 )  
               b(3) = (  0.000000  0.000000  1.000000 )  


     PseudoPot. # 1 for Al read from file:
     /opt/pp/Al.pbe-nl-kjpaw_psl.1.0.0.UPF
     MD5 check sum: 1b67f78b73fe58c7924490f171ce8a1e
     Pseudo is Projector augmented-wave + core cor, Zval =  3.0
     Generated using "atomic" code by A. Dal Corso v.6.3
     Shape of augmentation charge: PSQ
     Using radial grid of 1135 points,  4 beta functions with: 
                l(1) =   0
                l(2) =   0
                l(3) =   1
                l(4) =   1
     Q(r) pseudized with 0 coefficients 


     atomic species   valence    mass     pseudopotential
        Al             3.00    26.98200     Al( 1.00)

     No symmetry found



   Cartesian axes

     site n.     atom                  positions (alat units)
         1           Al  tau(   1) = (  -0.0000654   0.0000190   0.0001361  )
         2           Al  tau(   2) = (   0.5001592   0.4996200   0.5001406  )

     number of k points=    32  Marzari-Vanderbilt smearing, width (Ry)=  0.0200
                       cart. coord. in units 2pi/alat
        k(    1) = (   0.1250000   0.1250000   0.1250000), wk =   0.0625000
        k(    2) = (   0.1250000   0.1250000   0.3750000), wk =   0.0625000
        k(    3) = (   0.1250000   0.3750000   0.3750000), wk =   0.0625000
        k(    4) = (   0.3750000   0.3750000   0.3750000), wk =   0.0625000
        k(    5) = (  -0.1250000  -0.1250000   0.1250000), wk =   0.0625000
        k(    6) = (  -0.1250000   0.1250000  -0.1250000), wk =   0.0625000
        k(    7) = (   0.1250000  -0.1250000  -0.1250000), wk =   0.0625000
        k(    8) = (  -0.1250000  -0.1250000   0.3750000), wk =   0.0625000
        k(    9) = (  -0.1250000   0.1250000  -0.3750000), wk =   0.0625000
        k(   10) = (   0.1250000  -0.1250000  -0.3750000), wk =   0.0625000
        k(   11) = (   0.3750000  -0.1250000   0.1250000), wk =   0.0625000
        k(   12) = (  -0.3750000  -0.1250000  -0.1250000), wk =   0.0625000
        k(   13) = (   0.3750000   0.1250000  -0.1250000), wk =   0.0625000
        k(   14) = (  -0.3750000   0.1250000   0.1250000), wk =   0.0625000
        k(   15) = (  -0.1250000   0.3750000   0.1250000), wk =   0.0625000
        k(   16) = (  -0.1250000  -0.3750000  -0.1250000), wk =   0.0625000
        k(   17) = (   0.1250000   0.3750000  -0.1250000), wk =   0.0625000
        k(   18) = (   0.1250000  -0.3750000   0.1250000), wk =   0.0625000
        k(   19) = (  -0.1250000  -0.3750000   0.3750000), wk =   0.0625000
        k(   20) = (  -0.1250000   0.3750000  -0.3750000), wk =   0.0625000
        k(   21) = (   0.1250000  -0.3750000  -0.3750000), wk =   0.0625000
        k(   22) = (   0.3750000   0.1250000  -0.3750000), wk =   0.0625000
        k(   23) = (  -0.3750000  -0.1250000  -0.3750000), wk =   0.0625000
        k(   24) = (   0.3750000  -0.1250000   0.3750000), wk =   0.0625000
        k(   25) = (  -0.3750000   0.1250000   0.3750000), wk =   0.0625000
        k(   26) = (   0.3750000  -0.3750000   0.1250000), wk =   0.0625000
        k(   27) = (  -0.3750000  -0.3750000  -0.1250000), wk =   0.0625000
        k(   28) = (   0.3750000   0.3750000  -0.1250000), wk =   0.0625000
        k(   29) = (  -0.3750000   0.3750000   0.1250000), wk =   0.0625000
        k(   30) = (  -0.3750000  -0.3750000   0.3750000), wk =   0.0625000
        k(   31) = (  -0.3750000   0.3750000  -0.3750000), wk =   0.0625000
        k(   32) = (   0.3750000  -0.3750000  -0.3750000), wk =   0.0625000

     Dense  grid:     7497 G-vectors     FFT dimensions: (  25,  25,  25)

     Estimated max dynamical RAM per process >       3.79 MB

     Estimated total dynamical RAM >      15.15 MB

     Initial potential from superposition of free atoms

     starting charge    5.99542, renormalised to    6.00000
     Starting wfcs are    8 randomized atomic wfcs
     Checking if some PAW data can be deallocated... 

     total cpu time spent up to now is        0.8 secs

     Self-consistent Calculation

     iteration #  1     ecut=    25.00 Ry     beta= 0.10
     Davidson diagonalization with overlap
     ethr =  1.00E-02,  avg # of iterations =  3.0

     Threshold (ethr) on eigenvalues was too large:
     Diagonalizing with lowered threshold

     Davidson diagonalization with overlap
     ethr =  1.34E-04,  avg # of iterations =  2.4

     total cpu time spent up to now is        1.2 secs

     total energy              =     -78.84820009 Ry
     Harris-Foulkes estimate   =     -78.84849252 Ry
     estimated scf accuracy    <       0.00804085 Ry

     iteration #  2     ecut=    25.00 Ry     beta= 0.10
     Davidson diagonalization with overlap
     ethr =  1.34E-04,  avg # of iterations =  1.0

     total cpu time spent up to now is        1.3 secs

     total energy              =     -78.84602089 Ry
     Harris-Foulkes estimate   =     -78.84823132 Ry
     estimated scf accuracy    <       0.00702677 Ry

     iteration #  3     ecut=    25.00 Ry     beta= 0.10
     Davidson diagonalization with overlap
     ethr =  1.17E-04,  avg # of iterations =  1.0

     total cpu time spent up to now is        1.6 secs

     total energy              =     -78.84637639 Ry
     Harris-Foulkes estimate   =     -78.84640191 Ry
     estimated scf accuracy    <       0.00003647 Ry

     iteration #  4     ecut=    25.00 Ry     beta= 0.10
     Davidson diagonalization with overlap
     ethr =  6.08E-07,  avg # of iterations =  3.5

     total cpu time spent up to now is        1.8 secs

     total energy              =     -78.84634836 Ry
     Harris-Foulkes estimate   =     -78.84642548 Ry
     estimated scf accuracy    <       0.00003217 Ry

     iteration #  5     ecut=    25.00 Ry     beta= 0.10
     Davidson diagonalization with overlap
     ethr =  5.36E-07,  avg # of iterations =  1.8

     total cpu time spent up to now is        2.0 secs

     total energy              =     -78.84630742 Ry
     Harris-Foulkes estimate   =     -78.84635261 Ry
     estimated scf accuracy    <       0.00003451 Ry

     iteration #  6     ecut=    25.00 Ry     beta= 0.10
     Davidson diagonalization with overlap
     ethr =  5.36E-07,  avg # of iterations =  2.0

     total cpu time spent up to now is        2.2 secs

     total energy              =     -78.84631273 Ry
     Harris-Foulkes estimate   =     -78.84631178 Ry
     estimated scf accuracy    <       0.00000132 Ry

     iteration #  7     ecut=    25.00 Ry     beta= 0.10
     Davidson diagonalization with overlap
     ethr =  2.20E-08,  avg # of iterations =  1.4

     total cpu time spent up to now is        2.3 secs

     total energy              =     -78.84631058 Ry
     Harris-Foulkes estimate   =     -78.84631280 Ry
     estimated scf accuracy    <       0.00000168 Ry

     iteration #  8     ecut=    25.00 Ry     beta= 0.10
     Davidson diagonalization with overlap
     ethr =  2.20E-08,  avg # of iterations =  1.7

     total cpu time spent up to now is        2.6 secs

     End of self-consistent calculation

          k = 0.1250 0.1250 0.1250 (   943 PWs)   bands (ev):

    -4.4253   1.0103   2.7015   2.7015   5.4539   7.3975   7.7395

          k = 0.1250 0.1250 0.3750 (   929 PWs)   bands (ev):

    -3.3348  -1.2260   2.9075   3.7513   4.8836   5.8035   6.8327

          k = 0.1250 0.3750 0.3750 (   943 PWs)   bands (ev):

    -2.2804  -0.7131   0.7119   2.2463   4.4317   5.9932   7.0195

          k = 0.3750 0.3750 0.3750 (   943 PWs)   bands (ev):

    -1.2686  -0.1187   1.7881   1.7881   2.5357   3.9213   3.9213

          k =-0.1250-0.1250 0.1250 (   943 PWs)   bands (ev):

    -4.4253   1.0102   2.7015   2.7015   5.4539   7.3975   7.7395

          k =-0.1250 0.1250-0.1250 (   943 PWs)   bands (ev):

    -4.4253   1.0102   2.7015   2.7015   5.4538   7.3975   7.7396

          k = 0.1250-0.1250-0.1250 (   943 PWs)   bands (ev):

    -4.4253   1.0102   2.7015   2.7015   5.4539   7.3975   7.7396

          k =-0.1250-0.1250 0.3750 (   929 PWs)   bands (ev):

    -3.3348  -1.2260   2.9075   3.7513   4.8835   5.8035   6.8327

          k =-0.1250 0.1250-0.3750 (   929 PWs)   bands (ev):

    -3.3348  -1.2260   2.9075   3.7513   4.8835   5.8035   6.8327

          k = 0.1250-0.1250-0.3750 (   929 PWs)   bands (ev):

    -3.3348  -1.2260   2.9075   3.7513   4.8836   5.8035   6.8327

          k = 0.3750-0.1250 0.1250 (   929 PWs)   bands (ev):

    -3.3348  -1.2260   2.9075   3.7513   4.8835   5.8035   6.8327

          k =-0.3750-0.1250-0.1250 (   929 PWs)   bands (ev):

    -3.3348  -1.2260   2.9075   3.7512   4.8836   5.8035   6.8327

          k = 0.3750 0.1250-0.1250 (   929 PWs)   bands (ev):

    -3.3348  -1.2260   2.9075   3.7513   4.8835   5.8035   6.8327

          k =-0.3750 0.1250 0.1250 (   929 PWs)   bands (ev):

    -3.3348  -1.2260   2.9075   3.7512   4.8836   5.8035   6.8327

          k =-0.1250 0.3750 0.1250 (   929 PWs)   bands (ev):

    -3.3348  -1.2260   2.9075   3.7513   4.8835   5.8035   6.8327

          k =-0.1250-0.3750-0.1250 (   929 PWs)   bands (ev):

    -3.3348  -1.2260   2.9075   3.7512   4.8836   5.8035   6.8327

          k = 0.1250 0.3750-0.1250 (   929 PWs)   bands (ev):

    -3.3348  -1.2260   2.9075   3.7513   4.8835   5.8035   6.8327

          k = 0.1250-0.3750 0.1250 (   929 PWs)   bands (ev):

    -3.3348  -1.2260   2.9075   3.7512   4.8835   5.8035   6.8327

          k =-0.1250-0.3750 0.3750 (   943 PWs)   bands (ev):

    -2.2804  -0.7131   0.7119   2.2463   4.4317   5.9932   7.0196

          k =-0.1250 0.3750-0.3750 (   943 PWs)   bands (ev):

    -2.2804  -0.7131   0.7119   2.2463   4.4317   5.9932   7.0196

          k = 0.1250-0.3750-0.3750 (   943 PWs)   bands (ev):

    -2.2804  -0.7131   0.7119   2.2463   4.4317   5.9932   7.0195

          k = 0.3750 0.1250-0.3750 (   943 PWs)   bands (ev):

    -2.2804  -0.7131   0.7119   2.2463   4.4317   5.9932   7.0196

          k =-0.3750-0.1250-0.3750 (   943 PWs)   bands (ev):

    -2.2804  -0.7131   0.7119   2.2463   4.4317   5.9932   7.0195

          k = 0.3750-0.1250 0.3750 (   943 PWs)   bands (ev):

    -2.2804  -0.7131   0.7119   2.2463   4.4317   5.9932   7.0195

          k =-0.3750 0.1250 0.3750 (   943 PWs)   bands (ev):

    -2.2804  -0.7131   0.7119   2.2463   4.4317   5.9932   7.0196

          k = 0.3750-0.3750 0.1250 (   943 PWs)   bands (ev):

    -2.2804  -0.7131   0.7119   2.2463   4.4317   5.9932   7.0196

          k =-0.3750-0.3750-0.1250 (   943 PWs)   bands (ev):

    -2.2804  -0.7131   0.7119   2.2463   4.4317   5.9932   7.0195

          k = 0.3750 0.3750-0.1250 (   943 PWs)   bands (ev):

    -2.2804  -0.7131   0.7119   2.2463   4.4317   5.9932   7.0195

          k =-0.3750 0.3750 0.1250 (   943 PWs)   bands (ev):

    -2.2804  -0.7131   0.7119   2.2463   4.4317   5.9932   7.0196

          k =-0.3750-0.3750 0.3750 (   943 PWs)   bands (ev):

    -1.2686  -0.1187   1.7881   1.7882   2.5357   3.9213   3.9214

          k =-0.3750 0.3750-0.3750 (   943 PWs)   bands (ev):

    -1.2686  -0.1187   1.7881   1.7882   2.5357   3.9213   3.9214

          k = 0.3750-0.3750-0.3750 (   943 PWs)   bands (ev):

    -1.2686  -0.1187   1.7881   1.7882   2.5357   3.9213   3.9214

     the Fermi energy is     2.4397 ev

!    total energy              =     -78.84631047 Ry
     Harris-Foulkes estimate   =     -78.84631076 Ry
     estimated scf accuracy    <       0.00000037 Ry

     total all-electron energy =      -971.131872 Ry

     The total energy is the sum of the following terms:

     one-electron contribution =       3.57785727 Ry
     hartree contribution      =       0.10230938 Ry
     xc contribution           =      -4.62878772 Ry
     ewald contribution        =      -8.57905001 Ry
     one-center paw contrib.   =     -69.31791232 Ry
     smearing contrib. (-TS)   =      -0.00072707 Ry

     convergence has been achieved in   8 iterations

     Forces acting on atoms (cartesian axes, Ry/au):

     atom    1 type  1   force =    -0.00002734    0.00001161   -0.00000123
     atom    2 type  1   force =     0.00002734   -0.00001161    0.00000123

     Total force =     0.000042     Total SCF correction =     0.000112
     SCF correction compared to forces is large: reduce conv_thr to get better values


     Computing stress (Cartesian axis) and pressure

          total   stress  (Ry/bohr**3)                   (kbar)     P=  -93.06
  -0.00063261  -0.00000000   0.00000000        -93.06     -0.00      0.00
  -0.00000000  -0.00063261   0.00000000         -0.00    -93.06      0.00
   0.00000000   0.00000000  -0.00063261          0.00      0.00    -93.06


     Writing output data file fe_scf_fcc_2.save/

     init_run     :      0.14s CPU      0.14s WALL (       1 calls)
     electrons    :      1.54s CPU      1.82s WALL (       1 calls)
     forces       :      0.03s CPU      0.03s WALL (       1 calls)
     stress       :      0.05s CPU      0.05s WALL (       1 calls)

     Called by init_run:
     wfcinit      :      0.05s CPU      0.05s WALL (       1 calls)
     potinit      :      0.04s CPU      0.04s WALL (       1 calls)
     hinit0       :      0.05s CPU      0.05s WALL (       1 calls)

     Called by electrons:
     c_bands      :      1.07s CPU      1.26s WALL (       9 calls)
     sum_band     :      0.17s CPU      0.22s WALL (       9 calls)
     v_of_rho     :      0.03s CPU      0.04s WALL (       9 calls)
     newd         :      0.02s CPU      0.02s WALL (       9 calls)
     PAW_pot      :      0.27s CPU      0.29s WALL (       9 calls)
     mix_rho      :      0.00s CPU      0.00s WALL (       9 calls)

     Called by c_bands:
     init_us_2    :      0.03s CPU      0.03s WALL (     672 calls)
     cegterg      :      1.03s CPU      1.21s WALL (     288 calls)

     Called by sum_band:
     sum_band:bec :      0.00s CPU      0.00s WALL (     288 calls)
     addusdens    :      0.01s CPU      0.01s WALL (       9 calls)

     Called by *egterg:
     h_psi        :      0.77s CPU      0.89s WALL (     887 calls)
     s_psi        :      0.03s CPU      0.04s WALL (     887 calls)
     g_psi        :      0.00s CPU      0.02s WALL (     567 calls)
     cdiaghg      :      0.08s CPU      0.09s WALL (     823 calls)

     Called by h_psi:
     h_psi:pot    :      0.77s CPU      0.89s WALL (     887 calls)
     h_psi:calbec :      0.05s CPU      0.05s WALL (     887 calls)
     vloc_psi     :      0.69s CPU      0.80s WALL (     887 calls)
     add_vuspsi   :      0.03s CPU      0.03s WALL (     887 calls)

     General routines
     calbec       :      0.08s CPU      0.09s WALL (    1335 calls)
     fft          :      0.03s CPU      0.03s WALL (     125 calls)
     ffts         :      0.00s CPU      0.00s WALL (       9 calls)
     fftw         :      0.75s CPU      0.89s WALL (   12384 calls)

     Parallel routines
     fft_scatt_xy :      0.08s CPU      0.09s WALL (   12518 calls)
     fft_scatt_yz :      0.44s CPU      0.52s WALL (   12518 calls)

     PWSCF        :      2.35s CPU      2.71s WALL


   This run was terminated on:  15:44:46  24Feb2020            

=------------------------------------------------------------------------------=
   JOB DONE.
=------------------------------------------------------------------------------=
