
     Program PWSCF v.6.4.1 starts on 11Mar2020 at  6:21:44 

     This program is part of the open-source Quantum ESPRESSO suite
     for quantum simulation of materials; please cite
         "P. Giannozzi et al., J. Phys.:Condens. Matter 21 395502 (2009);
         "P. Giannozzi et al., J. Phys.:Condens. Matter 29 465901 (2017);
          URL http://www.quantum-espresso.org", 
     in publications or presentations arising from this work. More details at
     http://www.quantum-espresso.org/quote

     Parallel version (MPI), running on     4 processors

     MPI processes distributed on     1 nodes
     R & G space division:  proc/nbgrp/npool/nimage =       4
     Reading input from wd/ecut/file_000050.in
Warning: card &IONS ignored
Warning: card ION_DYNAMICS = 'BFGS', ignored
Warning: card / ignored
Warning: card &CELL ignored
Warning: card CELL_DYNAMICS = 'BFGS', ignored
Warning: card CELL_FACTOR = 2.0, ignored
Warning: card PRESS = 0.0, ignored
Warning: card / ignored

     Current dimensions of program PWSCF are:
     Max number of different atomic species (ntypx) = 10
     Max number of k-points (npk) =  40000
     Max angular momentum in pseudopotentials (lmaxx) =  3
               file Al.pbe-nl-kjpaw_psl.1.0.0.UPF: wavefunction(s)  3S 3P renormalized

     Subspace diagonalization in iterative solution of the eigenvalue problem:
     a serial algorithm will be used


     Parallelization info
     --------------------
     sticks:   dense  smooth     PW     G-vecs:    dense   smooth      PW
     Min         121     121     44                 2053     2053     434
     Max         123     123     45                 2055     2055     437
     Sum         489     489    177                 8217     8217    1743



     bravais-lattice index     =            0
     lattice parameter (alat)  =       7.6356  a.u.
     unit-cell volume          =     445.1737 (a.u.)^3
     number of atoms/cell      =            4
     number of atomic types    =            1
     number of electrons       =        12.00
     number of Kohn-Sham states=           10
     kinetic-energy cutoff     =      29.0000  Ry
     charge density cutoff     =     105.0000  Ry
     convergence threshold     =      1.0E-06
     mixing beta               =       0.1000
     number of iterations used =           10  TF        mixing
     Exchange-correlation      = SLA PW PBX PBC ( 1  4  3  4 0 0)

     celldm(1)=   7.635600  celldm(2)=   0.000000  celldm(3)=   0.000000
     celldm(4)=   0.000000  celldm(5)=   0.000000  celldm(6)=   0.000000

     crystal axes: (cart. coord. in units of alat)
               a(1) = (   1.000000   0.000000   0.000000 )  
               a(2) = (   0.000000   1.000000   0.000000 )  
               a(3) = (   0.000000   0.000000   1.000000 )  

     reciprocal axes: (cart. coord. in units 2 pi/alat)
               b(1) = (  1.000000  0.000000  0.000000 )  
               b(2) = (  0.000000  1.000000  0.000000 )  
               b(3) = (  0.000000  0.000000  1.000000 )  


     PseudoPot. # 1 for Al read from file:
     /opt/pp/Al.pbe-nl-kjpaw_psl.1.0.0.UPF
     MD5 check sum: 1b67f78b73fe58c7924490f171ce8a1e
     Pseudo is Projector augmented-wave + core cor, Zval =  3.0
     Generated using "atomic" code by A. Dal Corso v.6.3
     Shape of augmentation charge: PSQ
     Using radial grid of 1135 points,  4 beta functions with: 
                l(1) =   0
                l(2) =   0
                l(3) =   1
                l(4) =   1
     Q(r) pseudized with 0 coefficients 


     atomic species   valence    mass     pseudopotential
        Al             3.00    26.98200     Al( 1.00)

     No symmetry found



   Cartesian axes

     site n.     atom                  positions (alat units)
         1           Al  tau(   1) = (  -0.0000654   0.0000190   0.0001361  )
         2           Al  tau(   2) = (   0.5001592   0.4996200   0.0001406  )
         3           Al  tau(   3) = (   0.4998143   0.0000610   0.5005910  )
         4           Al  tau(   4) = (  -0.0000400   0.5004374   0.5003674  )

     number of k points=    63  Marzari-Vanderbilt smearing, width (Ry)=  0.0200
                       cart. coord. in units 2pi/alat
        k(    1) = (   0.1000000   0.1000000   0.1000000), wk =   0.0320000
        k(    2) = (   0.1000000   0.1000000   0.3000000), wk =   0.0320000
        k(    3) = (   0.1000000   0.1000000  -0.5000000), wk =   0.0320000
        k(    4) = (   0.1000000   0.3000000   0.3000000), wk =   0.0320000
        k(    5) = (   0.1000000   0.3000000  -0.5000000), wk =   0.0320000
        k(    6) = (   0.1000000  -0.5000000  -0.5000000), wk =   0.0320000
        k(    7) = (   0.3000000   0.3000000   0.3000000), wk =   0.0320000
        k(    8) = (   0.3000000   0.3000000  -0.5000000), wk =   0.0320000
        k(    9) = (   0.3000000  -0.5000000  -0.5000000), wk =   0.0320000
        k(   10) = (  -0.5000000  -0.5000000  -0.5000000), wk =   0.0160000
        k(   11) = (  -0.1000000  -0.1000000   0.1000000), wk =   0.0320000
        k(   12) = (  -0.1000000   0.1000000  -0.1000000), wk =   0.0320000
        k(   13) = (   0.1000000  -0.1000000  -0.1000000), wk =   0.0320000
        k(   14) = (  -0.1000000  -0.1000000   0.3000000), wk =   0.0320000
        k(   15) = (  -0.1000000   0.1000000  -0.3000000), wk =   0.0320000
        k(   16) = (   0.1000000  -0.1000000  -0.3000000), wk =   0.0320000
        k(   17) = (   0.3000000  -0.1000000   0.1000000), wk =   0.0320000
        k(   18) = (  -0.3000000  -0.1000000  -0.1000000), wk =   0.0320000
        k(   19) = (   0.3000000   0.1000000  -0.1000000), wk =   0.0320000
        k(   20) = (  -0.3000000   0.1000000   0.1000000), wk =   0.0320000
        k(   21) = (  -0.1000000   0.3000000   0.1000000), wk =   0.0320000
        k(   22) = (  -0.1000000  -0.3000000  -0.1000000), wk =   0.0320000
        k(   23) = (   0.1000000   0.3000000  -0.1000000), wk =   0.0320000
        k(   24) = (   0.1000000  -0.3000000   0.1000000), wk =   0.0320000
        k(   25) = (  -0.1000000   0.1000000   0.5000000), wk =   0.0320000
        k(   26) = (  -0.5000000  -0.1000000   0.1000000), wk =   0.0320000
        k(   27) = (   0.5000000  -0.1000000  -0.1000000), wk =   0.0320000
        k(   28) = (  -0.1000000  -0.5000000   0.1000000), wk =   0.0320000
        k(   29) = (  -0.1000000   0.5000000  -0.1000000), wk =   0.0320000
        k(   30) = (  -0.1000000  -0.3000000   0.3000000), wk =   0.0320000
        k(   31) = (  -0.1000000   0.3000000  -0.3000000), wk =   0.0320000
        k(   32) = (   0.1000000  -0.3000000  -0.3000000), wk =   0.0320000
        k(   33) = (   0.3000000   0.1000000  -0.3000000), wk =   0.0320000
        k(   34) = (  -0.3000000  -0.1000000  -0.3000000), wk =   0.0320000
        k(   35) = (   0.3000000  -0.1000000   0.3000000), wk =   0.0320000
        k(   36) = (  -0.3000000   0.1000000   0.3000000), wk =   0.0320000
        k(   37) = (   0.3000000  -0.3000000   0.1000000), wk =   0.0320000
        k(   38) = (  -0.3000000  -0.3000000  -0.1000000), wk =   0.0320000
        k(   39) = (   0.3000000   0.3000000  -0.1000000), wk =   0.0320000
        k(   40) = (  -0.3000000   0.3000000   0.1000000), wk =   0.0320000
        k(   41) = (  -0.1000000   0.3000000   0.5000000), wk =   0.0320000
        k(   42) = (   0.3000000   0.1000000   0.5000000), wk =   0.0320000
        k(   43) = (   0.3000000  -0.1000000  -0.5000000), wk =   0.0320000
        k(   44) = (  -0.5000000  -0.3000000   0.1000000), wk =   0.0320000
        k(   45) = (   0.5000000  -0.3000000  -0.1000000), wk =   0.0320000
        k(   46) = (  -0.1000000  -0.5000000   0.3000000), wk =   0.0320000
        k(   47) = (  -0.1000000   0.5000000  -0.3000000), wk =   0.0320000
        k(   48) = (   0.3000000  -0.5000000   0.1000000), wk =   0.0320000
        k(   49) = (   0.3000000   0.5000000  -0.1000000), wk =   0.0320000
        k(   50) = (  -0.5000000   0.1000000   0.3000000), wk =   0.0320000
        k(   51) = (   0.5000000  -0.1000000   0.3000000), wk =   0.0320000
        k(   52) = (  -0.5000000   0.1000000   0.5000000), wk =   0.0320000
        k(   53) = (  -0.5000000   0.5000000   0.1000000), wk =   0.0320000
        k(   54) = (  -0.3000000  -0.3000000   0.3000000), wk =   0.0320000
        k(   55) = (  -0.3000000   0.3000000  -0.3000000), wk =   0.0320000
        k(   56) = (   0.3000000  -0.3000000  -0.3000000), wk =   0.0320000
        k(   57) = (  -0.3000000   0.3000000   0.5000000), wk =   0.0320000
        k(   58) = (  -0.5000000  -0.3000000   0.3000000), wk =   0.0320000
        k(   59) = (   0.5000000  -0.3000000  -0.3000000), wk =   0.0320000
        k(   60) = (  -0.3000000  -0.5000000   0.3000000), wk =   0.0320000
        k(   61) = (  -0.3000000   0.5000000  -0.3000000), wk =   0.0320000
        k(   62) = (  -0.5000000   0.3000000   0.5000000), wk =   0.0320000
        k(   63) = (  -0.5000000   0.5000000   0.3000000), wk =   0.0320000

     Dense  grid:     8217 G-vectors     FFT dimensions: (  25,  25,  25)

     Estimated max dynamical RAM per process >       6.25 MB

     Estimated total dynamical RAM >      25.00 MB

     Initial potential from superposition of free atoms

     starting charge   11.99084, renormalised to   12.00000
     Starting wfcs are   16 randomized atomic wfcs
     Checking if some PAW data can be deallocated... 

     total cpu time spent up to now is        0.7 secs

     Self-consistent Calculation

     iteration #  1     ecut=    29.00 Ry     beta= 0.10
     Davidson diagonalization with overlap
     ethr =  1.00E-02,  avg # of iterations =  3.1

     Threshold (ethr) on eigenvalues was too large:
     Diagonalizing with lowered threshold

     Davidson diagonalization with overlap
     ethr =  1.94E-04,  avg # of iterations =  3.8

     total cpu time spent up to now is        1.9 secs

     total energy              =    -158.00477188 Ry
     Harris-Foulkes estimate   =    -158.00558547 Ry
     estimated scf accuracy    <       0.02274083 Ry

     iteration #  2     ecut=    29.00 Ry     beta= 0.10
     Davidson diagonalization with overlap
     ethr =  1.90E-04,  avg # of iterations =  1.1

     total cpu time spent up to now is        2.3 secs

     total energy              =    -157.99880567 Ry
     Harris-Foulkes estimate   =    -158.00489086 Ry
     estimated scf accuracy    <       0.01959136 Ry

     iteration #  3     ecut=    29.00 Ry     beta= 0.10
     Davidson diagonalization with overlap
     ethr =  1.63E-04,  avg # of iterations =  1.0

     total cpu time spent up to now is        2.7 secs

     total energy              =    -157.99912551 Ry
     Harris-Foulkes estimate   =    -157.99917270 Ry
     estimated scf accuracy    <       0.00009655 Ry

     iteration #  4     ecut=    29.00 Ry     beta= 0.10
     Davidson diagonalization with overlap
     ethr =  8.05E-07,  avg # of iterations =  5.4

     total cpu time spent up to now is        3.4 secs

     total energy              =    -157.99918477 Ry
     Harris-Foulkes estimate   =    -157.99919862 Ry
     estimated scf accuracy    <       0.00005460 Ry

     iteration #  5     ecut=    29.00 Ry     beta= 0.10
     Davidson diagonalization with overlap
     ethr =  4.55E-07,  avg # of iterations =  1.0

     total cpu time spent up to now is        3.9 secs

     total energy              =    -157.99914138 Ry
     Harris-Foulkes estimate   =    -157.99918609 Ry
     estimated scf accuracy    <       0.00004165 Ry

     iteration #  6     ecut=    29.00 Ry     beta= 0.10
     Davidson diagonalization with overlap
     ethr =  3.47E-07,  avg # of iterations =  2.0

     total cpu time spent up to now is        4.4 secs

     End of self-consistent calculation

          k = 0.1000 0.1000 0.1000 (  1174 PWs)   bands (ev):

    -2.9611   4.0421   4.0444   4.0467   7.7429   7.7455   7.7481  10.7622
    10.7651  10.7681

          k = 0.1000 0.1000 0.3000 (  1172 PWs)   bands (ev):

    -2.2387   1.3162   4.7255   4.7288   8.0317   8.0377   8.5382   8.5388
    11.3588  11.7986

          k = 0.1000 0.1000-0.5000 (  1168 PWs)   bands (ev):

    -0.8083  -0.8014   5.9707   5.9714   6.2119   6.2128   9.5152   9.5156
    10.1751  10.1762

          k = 0.1000 0.3000 0.3000 (  1179 PWs)   bands (ev):

    -1.5199   2.0157   2.0189   5.3114   5.5772   8.7962   8.8005   9.1518
    12.1883  12.1947

          k = 0.1000 0.3000-0.5000 (  1178 PWs)   bands (ev):

    -0.0966  -0.0897   3.4047   3.4117   6.7778   6.7853  10.1417  10.1497
    10.4866  10.4931

          k = 0.1000-0.5000-0.5000 (  1172 PWs)   bands (ev):

     1.3159   1.3164   1.3230   1.3241   8.1295   8.1302   8.1375   8.1389
    11.8294  11.8344

          k = 0.3000 0.3000 0.3000 (  1172 PWs)   bands (ev):

    -0.8046   2.7121   2.7145   2.7170   6.1664   6.1691   6.1717   9.5520
    13.0721  13.0764

          k = 0.3000 0.3000-0.5000 (  1162 PWs)   bands (ev):

     0.6119   0.6188   3.9831   3.9837   4.2326   4.2335   7.5278   7.5352
    14.1737  14.5722

          k = 0.3000-0.5000-0.5000 (  1164 PWs)   bands (ev):

     2.0172   2.0177   2.0243   2.0254   5.4870   5.4874   5.4942   5.4954
    15.6253  15.6311

          k =-0.5000-0.5000-0.5000 (  1208 PWs)   bands (ev):

     3.3113   3.3115   3.3117   3.3123   3.5288   3.5299   3.5301   3.5305
    19.3122  19.3127

          k =-0.1000-0.1000 0.1000 (  1174 PWs)   bands (ev):

    -2.9611   4.0425   4.0444   4.0463   7.7434   7.7456   7.7476  10.7628
    10.7652  10.7675

          k =-0.1000 0.1000-0.1000 (  1174 PWs)   bands (ev):

    -2.9611   4.0431   4.0444   4.0458   7.7440   7.7455   7.7470  10.7634
    10.7651  10.7668

          k = 0.1000-0.1000-0.1000 (  1174 PWs)   bands (ev):

    -2.9611   4.0427   4.0444   4.0461   7.7436   7.7456   7.7474  10.7630
    10.7652  10.7672

          k =-0.1000-0.1000 0.3000 (  1172 PWs)   bands (ev):

    -2.2387   1.3162   4.7255   4.7288   8.0317   8.0377   8.5382   8.5388
    11.3588  11.7983

          k =-0.1000 0.1000-0.3000 (  1172 PWs)   bands (ev):

    -2.2387   1.3162   4.7264   4.7279   8.0333   8.0361   8.5384   8.5386
    11.3588  11.7987

          k = 0.1000-0.1000-0.3000 (  1172 PWs)   bands (ev):

    -2.2387   1.3162   4.7264   4.7279   8.0333   8.0361   8.5384   8.5386
    11.3588  11.7985

          k = 0.3000-0.1000 0.1000 (  1172 PWs)   bands (ev):

    -2.2387   1.3162   4.7263   4.7279   8.0333   8.0361   8.5383   8.5387
    11.3588  11.7981

          k =-0.3000-0.1000-0.1000 (  1172 PWs)   bands (ev):

    -2.2387   1.3162   4.7257   4.7286   8.0321   8.0373   8.5382   8.5388
    11.3588  11.7988

          k = 0.3000 0.1000-0.1000 (  1172 PWs)   bands (ev):

    -2.2387   1.3162   4.7263   4.7279   8.0333   8.0361   8.5383   8.5387
    11.3588  11.7985

          k =-0.3000 0.1000 0.1000 (  1172 PWs)   bands (ev):

    -2.2387   1.3162   4.7257   4.7286   8.0321   8.0373   8.5382   8.5388
    11.3588  11.7983

          k =-0.1000 0.3000 0.1000 (  1172 PWs)   bands (ev):

    -2.2387   1.3162   4.7269   4.7274   8.0343   8.0351   8.5384   8.5386
    11.3588  11.7982

          k =-0.1000-0.3000-0.1000 (  1172 PWs)   bands (ev):

    -2.2387   1.3162   4.7264   4.7279   8.0333   8.0361   8.5385   8.5385
    11.3588  11.7979

          k = 0.1000 0.3000-0.1000 (  1172 PWs)   bands (ev):

    -2.2387   1.3162   4.7269   4.7274   8.0343   8.0352   8.5384   8.5386
    11.3588  11.7976

          k = 0.1000-0.3000 0.1000 (  1172 PWs)   bands (ev):

    -2.2387   1.3162   4.7264   4.7279   8.0333   8.0361   8.5384   8.5385
    11.3588  11.7987

          k =-0.1000 0.1000 0.5000 (  1168 PWs)   bands (ev):

    -0.8083  -0.8014   5.9708   5.9714   6.2118   6.2128   9.5152   9.5156
    10.1751  10.1762

          k =-0.5000-0.1000 0.1000 (  1168 PWs)   bands (ev):

    -0.8053  -0.8044   5.9709   5.9714   6.2119   6.2126   9.5153   9.5156
    10.1752  10.1760

          k = 0.5000-0.1000-0.1000 (  1168 PWs)   bands (ev):

    -0.8053  -0.8044   5.9709   5.9714   6.2119   6.2126   9.5153   9.5156
    10.1752  10.1760

          k =-0.1000-0.5000 0.1000 (  1168 PWs)   bands (ev):

    -0.8051  -0.8046   5.9710   5.9712   6.2121   6.2125   9.5154   9.5155
    10.1754  10.1758

          k =-0.1000 0.5000-0.1000 (  1168 PWs)   bands (ev):

    -0.8051  -0.8046   5.9710   5.9713   6.2121   6.2124   9.5153   9.5155
    10.1754  10.1758

          k =-0.1000-0.3000 0.3000 (  1179 PWs)   bands (ev):

    -1.5199   2.0164   2.0181   5.3114   5.5772   8.7971   8.7995   9.1518
    12.1893  12.1932

          k =-0.1000 0.3000-0.3000 (  1179 PWs)   bands (ev):

    -1.5199   2.0164   2.0181   5.3114   5.5772   8.7971   8.7995   9.1518
    12.1898  12.1933

          k = 0.1000-0.3000-0.3000 (  1179 PWs)   bands (ev):

    -1.5199   2.0157   2.0189   5.3114   5.5772   8.7962   8.8005   9.1518
    12.1883  12.1945

          k = 0.3000 0.1000-0.3000 (  1179 PWs)   bands (ev):

    -1.5199   2.0170   2.0176   5.3114   5.5772   8.7980   8.7987   9.1518
    12.1909  12.1919

          k =-0.3000-0.1000-0.3000 (  1179 PWs)   bands (ev):

    -1.5199   2.0165   2.0181   5.3114   5.5772   8.7972   8.7995   9.1518
    12.1886  12.1933

          k = 0.3000-0.1000 0.3000 (  1179 PWs)   bands (ev):

    -1.5199   2.0165   2.0181   5.3114   5.5772   8.7972   8.7995   9.1518
    12.1896  12.1932

          k =-0.3000 0.1000 0.3000 (  1179 PWs)   bands (ev):

    -1.5199   2.0170   2.0176   5.3114   5.5772   8.7979   8.7987   9.1518
    12.1908  12.1921

          k = 0.3000-0.3000 0.1000 (  1179 PWs)   bands (ev):

    -1.5199   2.0165   2.0181   5.3114   5.5772   8.7972   8.7995   9.1518
    12.1898  12.1932

          k =-0.3000-0.3000-0.1000 (  1179 PWs)   bands (ev):

    -1.5199   2.0155   2.0191   5.3114   5.5772   8.7959   8.8008   9.1518
    12.1854  12.1928

          k = 0.3000 0.3000-0.1000 (  1179 PWs)   bands (ev):

    -1.5199   2.0155   2.0191   5.3114   5.5772   8.7959   8.8008   9.1518
    12.1874  12.1951

          k =-0.3000 0.3000 0.1000 (  1179 PWs)   bands (ev):

    -1.5199   2.0165   2.0181   5.3114   5.5772   8.7972   8.7995   9.1518
    12.1898  12.1931

          k =-0.1000 0.3000 0.5000 (  1178 PWs)   bands (ev):

    -0.0966  -0.0897   3.4047   3.4117   6.7778   6.7853  10.1417  10.1497
    10.4866  10.4931

          k = 0.3000 0.1000 0.5000 (  1178 PWs)   bands (ev):

    -0.0966  -0.0897   3.4047   3.4117   6.7778   6.7853  10.1417  10.1497
    10.4866  10.4931

          k = 0.3000-0.1000-0.5000 (  1178 PWs)   bands (ev):

    -0.0966  -0.0897   3.4047   3.4117   6.7778   6.7853  10.1417  10.1497
    10.4866  10.4932

          k =-0.5000-0.3000 0.1000 (  1178 PWs)   bands (ev):

    -0.0936  -0.0926   3.4077   3.4087   6.7811   6.7821  10.1452  10.1462
    10.4894  10.4903

          k = 0.5000-0.3000-0.1000 (  1178 PWs)   bands (ev):

    -0.0936  -0.0926   3.4077   3.4087   6.7811   6.7821  10.1452  10.1462
    10.4895  10.4903

          k =-0.1000-0.5000 0.3000 (  1178 PWs)   bands (ev):

    -0.0933  -0.0929   3.4080   3.4084   6.7813   6.7818  10.1455  10.1460
    10.4897  10.4901

          k =-0.1000 0.5000-0.3000 (  1178 PWs)   bands (ev):

    -0.0933  -0.0929   3.4080   3.4084   6.7813   6.7818  10.1455  10.1460
    10.4897  10.4901

          k = 0.3000-0.5000 0.1000 (  1178 PWs)   bands (ev):

    -0.0933  -0.0929   3.4080   3.4084   6.7813   6.7818  10.1455  10.1459
    10.4897  10.4901

          k = 0.3000 0.5000-0.1000 (  1178 PWs)   bands (ev):

    -0.0933  -0.0929   3.4080   3.4084   6.7813   6.7818  10.1454  10.1459
    10.4897  10.4901

          k =-0.5000 0.1000 0.3000 (  1178 PWs)   bands (ev):

    -0.0936  -0.0926   3.4077   3.4087   6.7811   6.7821  10.1452  10.1462
    10.4895  10.4903

          k = 0.5000-0.1000 0.3000 (  1178 PWs)   bands (ev):

    -0.0936  -0.0926   3.4077   3.4087   6.7811   6.7821  10.1452  10.1462
    10.4895  10.4903

          k =-0.5000 0.1000 0.5000 (  1172 PWs)   bands (ev):

     1.3160   1.3167   1.3227   1.3240   8.1297   8.1305   8.1371   8.1388
    11.8285  11.8343

          k =-0.5000 0.5000 0.1000 (  1172 PWs)   bands (ev):

     1.3179   1.3190   1.3206   1.3218   8.1315   8.1329   8.1350   8.1366
    11.8315  11.8323

          k =-0.3000-0.3000 0.3000 (  1172 PWs)   bands (ev):

    -0.8046   2.7125   2.7146   2.7165   6.1669   6.1691   6.1712   9.5520
    13.0747  13.0768

          k =-0.3000 0.3000-0.3000 (  1172 PWs)   bands (ev):

    -0.8046   2.7131   2.7145   2.7160   6.1675   6.1691   6.1706   9.5520
    13.0734  13.0758

          k = 0.3000-0.3000-0.3000 (  1172 PWs)   bands (ev):

    -0.8046   2.7128   2.7146   2.7163   6.1671   6.1691   6.1710   9.5520
    13.0730  13.0762

          k =-0.3000 0.3000 0.5000 (  1162 PWs)   bands (ev):

     0.6118   0.6188   3.9831   3.9837   4.2326   4.2335   7.5278   7.5352
    14.1734  14.1739

          k =-0.5000-0.3000 0.3000 (  1162 PWs)   bands (ev):

     0.6148   0.6158   3.9832   3.9836   4.2326   4.2334   7.5310   7.5320
    14.1738  14.5721

          k = 0.5000-0.3000-0.3000 (  1162 PWs)   bands (ev):

     0.6148   0.6158   3.9832   3.9836   4.2326   4.2334   7.5310   7.5320
    14.1737  14.5722

          k =-0.3000-0.5000 0.3000 (  1162 PWs)   bands (ev):

     0.6151   0.6155   3.9834   3.9835   4.2328   4.2332   7.5312   7.5317
    14.5715  14.5719

          k =-0.3000 0.5000-0.3000 (  1162 PWs)   bands (ev):

     0.6151   0.6155   3.9833   3.9836   4.2329   4.2332   7.5313   7.5317
    14.1738  14.5717

          k =-0.5000 0.3000 0.5000 (  1164 PWs)   bands (ev):

     2.0173   2.0180   2.0240   2.0254   5.4870   5.4877   5.4939   5.4954
    15.6252  15.6300

          k =-0.5000 0.5000 0.3000 (  1164 PWs)   bands (ev):

     2.0193   2.0203   2.0219   2.0232   5.4890   5.4901   5.4918   5.4931
    15.6271  15.6290

     the Fermi energy is     8.0560 ev

!    total energy              =    -157.99915098 Ry
     Harris-Foulkes estimate   =    -157.99915116 Ry
     estimated scf accuracy    <       0.00000095 Ry

     total all-electron energy =     -1942.570273 Ry

     The total energy is the sum of the following terms:

     one-electron contribution =      12.66696516 Ry
     hartree contribution      =       0.02379028 Ry
     xc contribution           =     -10.36298557 Ry
     ewald contribution        =     -21.61650270 Ry
     one-center paw contrib.   =    -138.70860143 Ry
     smearing contrib. (-TS)   =      -0.00181673 Ry

     convergence has been achieved in   6 iterations

     Forces acting on atoms (cartesian axes, Ry/au):

     atom    1 type  1   force =     0.00005809   -0.00004849    0.00020099
     atom    2 type  1   force =    -0.00015520    0.00016079    0.00020384
     atom    3 type  1   force =     0.00003601    0.00005731   -0.00030080
     atom    4 type  1   force =     0.00006110   -0.00016961   -0.00010403

     Total force =     0.000525     Total SCF correction =     0.000229
     SCF correction compared to forces is large: reduce conv_thr to get better values


     Computing stress (Cartesian axis) and pressure

          total   stress  (Ry/bohr**3)                   (kbar)     P=   -1.39
  -0.00000948   0.00000001   0.00000002         -1.40      0.00      0.00
   0.00000001  -0.00000947   0.00000000          0.00     -1.39      0.00
   0.00000002   0.00000000  -0.00000948          0.00      0.00     -1.39


     Writing output data file fe_scf_fcc_2.save/

     init_run     :      0.34s CPU      0.34s WALL (       1 calls)
     electrons    :      3.44s CPU      3.65s WALL (       1 calls)
     forces       :      0.08s CPU      0.08s WALL (       1 calls)
     stress       :      0.13s CPU      0.14s WALL (       1 calls)

     Called by init_run:
     wfcinit      :      0.25s CPU      0.25s WALL (       1 calls)
     potinit      :      0.04s CPU      0.05s WALL (       1 calls)
     hinit0       :      0.04s CPU      0.04s WALL (       1 calls)

     Called by electrons:
     c_bands      :      2.78s CPU      2.95s WALL (       7 calls)
     sum_band     :      0.39s CPU      0.42s WALL (       7 calls)
     v_of_rho     :      0.02s CPU      0.02s WALL (       7 calls)
     newd         :      0.01s CPU      0.01s WALL (       7 calls)
     PAW_pot      :      0.27s CPU      0.29s WALL (       7 calls)
     mix_rho      :      0.00s CPU      0.00s WALL (       7 calls)

     Called by c_bands:
     init_us_2    :      0.06s CPU      0.06s WALL (    1071 calls)
     cegterg      :      2.67s CPU      2.83s WALL (     441 calls)

     Called by sum_band:
     sum_band:bec :      0.00s CPU      0.00s WALL (     441 calls)
     addusdens    :      0.01s CPU      0.01s WALL (       7 calls)

     Called by *egterg:
     h_psi        :      1.94s CPU      2.05s WALL (    1598 calls)
     s_psi        :      0.15s CPU      0.16s WALL (    1598 calls)
     g_psi        :      0.01s CPU      0.01s WALL (    1094 calls)
     cdiaghg      :      0.24s CPU      0.25s WALL (    1472 calls)

     Called by h_psi:
     h_psi:pot    :      1.94s CPU      2.05s WALL (    1598 calls)
     h_psi:calbec :      0.25s CPU      0.27s WALL (    1598 calls)
     vloc_psi     :      1.53s CPU      1.62s WALL (    1598 calls)
     add_vuspsi   :      0.15s CPU      0.16s WALL (    1598 calls)

     General routines
     calbec       :      0.43s CPU      0.45s WALL (    2354 calls)
     fft          :      0.01s CPU      0.01s WALL (     103 calls)
     ffts         :      0.00s CPU      0.00s WALL (       7 calls)
     fftw         :      1.66s CPU      1.76s WALL (   29294 calls)

     Parallel routines
     fft_scatt_xy :      0.18s CPU      0.19s WALL (   29404 calls)
     fft_scatt_yz :      0.88s CPU      0.93s WALL (   29404 calls)

     PWSCF        :      4.40s CPU      4.64s WALL


   This run was terminated on:   6:21:48  11Mar2020            

=------------------------------------------------------------------------------=
   JOB DONE.
=------------------------------------------------------------------------------=
