
     Program PWSCF v.6.4.1 starts on 10Apr2020 at  7: 4:57 

     This program is part of the open-source Quantum ESPRESSO suite
     for quantum simulation of materials; please cite
         "P. Giannozzi et al., J. Phys.:Condens. Matter 21 395502 (2009);
         "P. Giannozzi et al., J. Phys.:Condens. Matter 29 465901 (2017);
          URL http://www.quantum-espresso.org", 
     in publications or presentations arising from this work. More details at
     http://www.quantum-espresso.org/quote

     Parallel version (MPI), running on     4 processors

     MPI processes distributed on     1 nodes
     R & G space division:  proc/nbgrp/npool/nimage =       4
     Reading input from wd/ecut/file_000595.in
Warning: card &IONS ignored
Warning: card ION_DYNAMICS = 'BFGS', ignored
Warning: card / ignored
Warning: card &CELL ignored
Warning: card CELL_DYNAMICS = 'BFGS', ignored
Warning: card CELL_FACTOR = 2.0, ignored
Warning: card PRESS = 0.0, ignored
Warning: card / ignored

     Current dimensions of program PWSCF are:
     Max number of different atomic species (ntypx) = 10
     Max number of k-points (npk) =  40000
     Max angular momentum in pseudopotentials (lmaxx) =  3
               file Al.pbe-nl-kjpaw_psl.1.0.0.UPF: wavefunction(s)  3S 3P renormalized

     Subspace diagonalization in iterative solution of the eigenvalue problem:
     a serial algorithm will be used


     Parallelization info
     --------------------
     sticks:   dense  smooth     PW     G-vecs:    dense   smooth      PW
     Min         347     347    131                 9781     9781    2292
     Max         348     348    133                 9784     9784    2293
     Sum        1389    1389    529                39127    39127    9171



     bravais-lattice index     =            0
     lattice parameter (alat)  =       7.6356  a.u.
     unit-cell volume          =     445.1737 (a.u.)^3
     number of atoms/cell      =            4
     number of atomic types    =            1
     number of electrons       =        12.00
     number of Kohn-Sham states=           10
     kinetic-energy cutoff     =     100.0000  Ry
     charge density cutoff     =     300.0000  Ry
     convergence threshold     =      1.0E-06
     mixing beta               =       0.1000
     number of iterations used =           10  TF        mixing
     Exchange-correlation      = SLA PW PBX PBC ( 1  4  3  4 0 0)

     celldm(1)=   7.635600  celldm(2)=   0.000000  celldm(3)=   0.000000
     celldm(4)=   0.000000  celldm(5)=   0.000000  celldm(6)=   0.000000

     crystal axes: (cart. coord. in units of alat)
               a(1) = (   1.000000   0.000000   0.000000 )  
               a(2) = (   0.000000   1.000000   0.000000 )  
               a(3) = (   0.000000   0.000000   1.000000 )  

     reciprocal axes: (cart. coord. in units 2 pi/alat)
               b(1) = (  1.000000  0.000000  0.000000 )  
               b(2) = (  0.000000  1.000000  0.000000 )  
               b(3) = (  0.000000  0.000000  1.000000 )  


     PseudoPot. # 1 for Al read from file:
     /opt/pp/Al.pbe-nl-kjpaw_psl.1.0.0.UPF
     MD5 check sum: 1b67f78b73fe58c7924490f171ce8a1e
     Pseudo is Projector augmented-wave + core cor, Zval =  3.0
     Generated using "atomic" code by A. Dal Corso v.6.3
     Shape of augmentation charge: PSQ
     Using radial grid of 1135 points,  4 beta functions with: 
                l(1) =   0
                l(2) =   0
                l(3) =   1
                l(4) =   1
     Q(r) pseudized with 0 coefficients 


     atomic species   valence    mass     pseudopotential
        Al             3.00    26.98200     Al( 1.00)

     No symmetry found



   Cartesian axes

     site n.     atom                  positions (alat units)
         1           Al  tau(   1) = (  -0.0000654   0.0000190   0.0001361  )
         2           Al  tau(   2) = (   0.5001592   0.4996200   0.0001406  )
         3           Al  tau(   3) = (   0.4998143   0.0000610   0.5005910  )
         4           Al  tau(   4) = (  -0.0000400   0.5004374   0.5003674  )

     number of k points=    63  Marzari-Vanderbilt smearing, width (Ry)=  0.0200
                       cart. coord. in units 2pi/alat
        k(    1) = (   0.1000000   0.1000000   0.1000000), wk =   0.0320000
        k(    2) = (   0.1000000   0.1000000   0.3000000), wk =   0.0320000
        k(    3) = (   0.1000000   0.1000000  -0.5000000), wk =   0.0320000
        k(    4) = (   0.1000000   0.3000000   0.3000000), wk =   0.0320000
        k(    5) = (   0.1000000   0.3000000  -0.5000000), wk =   0.0320000
        k(    6) = (   0.1000000  -0.5000000  -0.5000000), wk =   0.0320000
        k(    7) = (   0.3000000   0.3000000   0.3000000), wk =   0.0320000
        k(    8) = (   0.3000000   0.3000000  -0.5000000), wk =   0.0320000
        k(    9) = (   0.3000000  -0.5000000  -0.5000000), wk =   0.0320000
        k(   10) = (  -0.5000000  -0.5000000  -0.5000000), wk =   0.0160000
        k(   11) = (  -0.1000000  -0.1000000   0.1000000), wk =   0.0320000
        k(   12) = (  -0.1000000   0.1000000  -0.1000000), wk =   0.0320000
        k(   13) = (   0.1000000  -0.1000000  -0.1000000), wk =   0.0320000
        k(   14) = (  -0.1000000  -0.1000000   0.3000000), wk =   0.0320000
        k(   15) = (  -0.1000000   0.1000000  -0.3000000), wk =   0.0320000
        k(   16) = (   0.1000000  -0.1000000  -0.3000000), wk =   0.0320000
        k(   17) = (   0.3000000  -0.1000000   0.1000000), wk =   0.0320000
        k(   18) = (  -0.3000000  -0.1000000  -0.1000000), wk =   0.0320000
        k(   19) = (   0.3000000   0.1000000  -0.1000000), wk =   0.0320000
        k(   20) = (  -0.3000000   0.1000000   0.1000000), wk =   0.0320000
        k(   21) = (  -0.1000000   0.3000000   0.1000000), wk =   0.0320000
        k(   22) = (  -0.1000000  -0.3000000  -0.1000000), wk =   0.0320000
        k(   23) = (   0.1000000   0.3000000  -0.1000000), wk =   0.0320000
        k(   24) = (   0.1000000  -0.3000000   0.1000000), wk =   0.0320000
        k(   25) = (  -0.1000000   0.1000000   0.5000000), wk =   0.0320000
        k(   26) = (  -0.5000000  -0.1000000   0.1000000), wk =   0.0320000
        k(   27) = (   0.5000000  -0.1000000  -0.1000000), wk =   0.0320000
        k(   28) = (  -0.1000000  -0.5000000   0.1000000), wk =   0.0320000
        k(   29) = (  -0.1000000   0.5000000  -0.1000000), wk =   0.0320000
        k(   30) = (  -0.1000000  -0.3000000   0.3000000), wk =   0.0320000
        k(   31) = (  -0.1000000   0.3000000  -0.3000000), wk =   0.0320000
        k(   32) = (   0.1000000  -0.3000000  -0.3000000), wk =   0.0320000
        k(   33) = (   0.3000000   0.1000000  -0.3000000), wk =   0.0320000
        k(   34) = (  -0.3000000  -0.1000000  -0.3000000), wk =   0.0320000
        k(   35) = (   0.3000000  -0.1000000   0.3000000), wk =   0.0320000
        k(   36) = (  -0.3000000   0.1000000   0.3000000), wk =   0.0320000
        k(   37) = (   0.3000000  -0.3000000   0.1000000), wk =   0.0320000
        k(   38) = (  -0.3000000  -0.3000000  -0.1000000), wk =   0.0320000
        k(   39) = (   0.3000000   0.3000000  -0.1000000), wk =   0.0320000
        k(   40) = (  -0.3000000   0.3000000   0.1000000), wk =   0.0320000
        k(   41) = (  -0.1000000   0.3000000   0.5000000), wk =   0.0320000
        k(   42) = (   0.3000000   0.1000000   0.5000000), wk =   0.0320000
        k(   43) = (   0.3000000  -0.1000000  -0.5000000), wk =   0.0320000
        k(   44) = (  -0.5000000  -0.3000000   0.1000000), wk =   0.0320000
        k(   45) = (   0.5000000  -0.3000000  -0.1000000), wk =   0.0320000
        k(   46) = (  -0.1000000  -0.5000000   0.3000000), wk =   0.0320000
        k(   47) = (  -0.1000000   0.5000000  -0.3000000), wk =   0.0320000
        k(   48) = (   0.3000000  -0.5000000   0.1000000), wk =   0.0320000
        k(   49) = (   0.3000000   0.5000000  -0.1000000), wk =   0.0320000
        k(   50) = (  -0.5000000   0.1000000   0.3000000), wk =   0.0320000
        k(   51) = (   0.5000000  -0.1000000   0.3000000), wk =   0.0320000
        k(   52) = (  -0.5000000   0.1000000   0.5000000), wk =   0.0320000
        k(   53) = (  -0.5000000   0.5000000   0.1000000), wk =   0.0320000
        k(   54) = (  -0.3000000  -0.3000000   0.3000000), wk =   0.0320000
        k(   55) = (  -0.3000000   0.3000000  -0.3000000), wk =   0.0320000
        k(   56) = (   0.3000000  -0.3000000  -0.3000000), wk =   0.0320000
        k(   57) = (  -0.3000000   0.3000000   0.5000000), wk =   0.0320000
        k(   58) = (  -0.5000000  -0.3000000   0.3000000), wk =   0.0320000
        k(   59) = (   0.5000000  -0.3000000  -0.3000000), wk =   0.0320000
        k(   60) = (  -0.3000000  -0.5000000   0.3000000), wk =   0.0320000
        k(   61) = (  -0.3000000   0.5000000  -0.3000000), wk =   0.0320000
        k(   62) = (  -0.5000000   0.3000000   0.5000000), wk =   0.0320000
        k(   63) = (  -0.5000000   0.5000000   0.3000000), wk =   0.0320000

     Dense  grid:    39127 G-vectors     FFT dimensions: (  45,  45,  45)

     Estimated max dynamical RAM per process >      34.07 MB

     Estimated total dynamical RAM >     136.30 MB

     Initial potential from superposition of free atoms

     starting charge   11.99084, renormalised to   12.00000
     Starting wfcs are   16 randomized atomic wfcs
     Checking if some PAW data can be deallocated... 

     total cpu time spent up to now is        1.3 secs

     Self-consistent Calculation

     iteration #  1     ecut=   100.00 Ry     beta= 0.10
     Davidson diagonalization with overlap
     ethr =  1.00E-02,  avg # of iterations =  3.1

     Threshold (ethr) on eigenvalues was too large:
     Diagonalizing with lowered threshold

     Davidson diagonalization with overlap
     ethr =  1.95E-04,  avg # of iterations =  3.5

     total cpu time spent up to now is        5.1 secs

     total energy              =    -158.00559810 Ry
     Harris-Foulkes estimate   =    -158.00640578 Ry
     estimated scf accuracy    <       0.02270907 Ry

     iteration #  2     ecut=   100.00 Ry     beta= 0.10
     Davidson diagonalization with overlap
     ethr =  1.89E-04,  avg # of iterations =  1.1

     total cpu time spent up to now is        6.5 secs

     total energy              =    -157.99959144 Ry
     Harris-Foulkes estimate   =    -158.00568847 Ry
     estimated scf accuracy    <       0.01960708 Ry

     iteration #  3     ecut=   100.00 Ry     beta= 0.10
     Davidson diagonalization with overlap
     ethr =  1.63E-04,  avg # of iterations =  1.0

     total cpu time spent up to now is        7.8 secs

     total energy              =    -157.99994436 Ry
     Harris-Foulkes estimate   =    -157.99997684 Ry
     estimated scf accuracy    <       0.00007674 Ry

     iteration #  4     ecut=   100.00 Ry     beta= 0.10
     Davidson diagonalization with overlap
     ethr =  6.39E-07,  avg # of iterations =  5.1

     total cpu time spent up to now is       10.3 secs

     total energy              =    -158.00000585 Ry
     Harris-Foulkes estimate   =    -158.00001892 Ry
     estimated scf accuracy    <       0.00005463 Ry

     iteration #  5     ecut=   100.00 Ry     beta= 0.10
     Davidson diagonalization with overlap
     ethr =  4.55E-07,  avg # of iterations =  1.1

     total cpu time spent up to now is       11.7 secs

     total energy              =    -157.99996544 Ry
     Harris-Foulkes estimate   =    -158.00000714 Ry
     estimated scf accuracy    <       0.00003924 Ry

     iteration #  6     ecut=   100.00 Ry     beta= 0.10
     Davidson diagonalization with overlap
     ethr =  3.27E-07,  avg # of iterations =  2.0

     total cpu time spent up to now is       13.4 secs

     End of self-consistent calculation

          k = 0.1000 0.1000 0.1000 (  7493 PWs)   bands (ev):

    -2.9616   4.0412   4.0435   4.0459   7.7410   7.7437   7.7463  10.7599
    10.7628  10.7657

          k = 0.1000 0.1000 0.3000 (  7502 PWs)   bands (ev):

    -2.2392   1.3155   4.7244   4.7278   8.0295   8.0356   8.5366   8.5372
    11.3559  11.7964

          k = 0.1000 0.1000-0.5000 (  7518 PWs)   bands (ev):

    -0.8089  -0.8020   5.9693   5.9700   6.2105   6.2114   9.5127   9.5131
    10.1740  10.1750

          k = 0.1000 0.3000 0.3000 (  7513 PWs)   bands (ev):

    -1.5204   2.0149   2.0181   5.3101   5.5759   8.7942   8.7985   9.1499
    12.1851  12.1912

          k = 0.1000 0.3000-0.5000 (  7518 PWs)   bands (ev):

    -0.0972  -0.0902   3.4037   3.4108   6.7762   6.7838  10.1394  10.1474
    10.4846  10.4911

          k = 0.1000-0.5000-0.5000 (  7500 PWs)   bands (ev):

     1.3152   1.3156   1.3222   1.3233   8.1276   8.1283   8.1356   8.1370
    11.8278  11.8284

          k = 0.3000 0.3000 0.3000 (  7532 PWs)   bands (ev):

    -0.8052   2.7112   2.7136   2.7161   6.1649   6.1676   6.1703   9.5499
    13.0691  13.0726

          k = 0.3000 0.3000-0.5000 (  7520 PWs)   bands (ev):

     0.6112   0.6181   3.9823   3.9829   4.2312   4.2321   7.5259   7.5333
    14.1692  14.5697

          k = 0.3000-0.5000-0.5000 (  7532 PWs)   bands (ev):

     2.0164   2.0169   2.0235   2.0246   5.4856   5.4861   5.4929   5.4941
    15.6226  15.6272

          k =-0.5000-0.5000-0.5000 (  7568 PWs)   bands (ev):

     3.3108   3.3110   3.3112   3.3117   3.5274   3.5285   3.5287   3.5291
    19.3114  19.3116

          k =-0.1000-0.1000 0.1000 (  7493 PWs)   bands (ev):

    -2.9616   4.0417   4.0436   4.0454   7.7416   7.7437   7.7458  10.7604
    10.7628  10.7651

          k =-0.1000 0.1000-0.1000 (  7493 PWs)   bands (ev):

    -2.9616   4.0423   4.0435   4.0449   7.7422   7.7437   7.7452  10.7611
    10.7628  10.7645

          k = 0.1000-0.1000-0.1000 (  7493 PWs)   bands (ev):

    -2.9616   4.0419   4.0436   4.0452   7.7418   7.7437   7.7455  10.7607
    10.7628  10.7649

          k =-0.1000-0.1000 0.3000 (  7502 PWs)   bands (ev):

    -2.2392   1.3155   4.7244   4.7278   8.0295   8.0356   8.5366   8.5372
    11.3559  11.7972

          k =-0.1000 0.1000-0.3000 (  7502 PWs)   bands (ev):

    -2.2392   1.3155   4.7253   4.7269   8.0312   8.0339   8.5367   8.5370
    11.3559  11.7959

          k = 0.1000-0.1000-0.3000 (  7502 PWs)   bands (ev):

    -2.2392   1.3155   4.7253   4.7269   8.0311   8.0339   8.5367   8.5370
    11.3559  11.7963

          k = 0.3000-0.1000 0.1000 (  7502 PWs)   bands (ev):

    -2.2392   1.3155   4.7253   4.7269   8.0311   8.0340   8.5367   8.5370
    11.3559  11.7958

          k =-0.3000-0.1000-0.1000 (  7502 PWs)   bands (ev):

    -2.2392   1.3155   4.7246   4.7276   8.0300   8.0351   8.5366   8.5372
    11.3559  11.7958

          k = 0.3000 0.1000-0.1000 (  7502 PWs)   bands (ev):

    -2.2392   1.3155   4.7253   4.7269   8.0311   8.0340   8.5367   8.5370
    11.3559  11.7960

          k =-0.3000 0.1000 0.1000 (  7502 PWs)   bands (ev):

    -2.2392   1.3155   4.7246   4.7276   8.0300   8.0351   8.5366   8.5372
    11.3559  11.7965

          k =-0.1000 0.3000 0.1000 (  7502 PWs)   bands (ev):

    -2.2392   1.3155   4.7258   4.7264   8.0321   8.0330   8.5368   8.5370
    11.3559  11.7962

          k =-0.1000-0.3000-0.1000 (  7502 PWs)   bands (ev):

    -2.2392   1.3155   4.7254   4.7268   8.0311   8.0340   8.5368   8.5369
    11.3559  11.7957

          k = 0.1000 0.3000-0.1000 (  7502 PWs)   bands (ev):

    -2.2392   1.3155   4.7258   4.7264   8.0321   8.0330   8.5368   8.5370
    11.3559  11.7963

          k = 0.1000-0.3000 0.1000 (  7502 PWs)   bands (ev):

    -2.2392   1.3155   4.7254   4.7268   8.0311   8.0340   8.5368   8.5369
    11.3559  11.7954

          k =-0.1000 0.1000 0.5000 (  7518 PWs)   bands (ev):

    -0.8089  -0.8020   5.9693   5.9699   6.2104   6.2114   9.5127   9.5131
    10.1739  10.1750

          k =-0.5000-0.1000 0.1000 (  7518 PWs)   bands (ev):

    -0.8059  -0.8049   5.9694   5.9699   6.2105   6.2112   9.5128   9.5131
    10.1740  10.1749

          k = 0.5000-0.1000-0.1000 (  7518 PWs)   bands (ev):

    -0.8059  -0.8049   5.9694   5.9699   6.2105   6.2112   9.5128   9.5131
    10.1740  10.1749

          k =-0.1000-0.5000 0.1000 (  7518 PWs)   bands (ev):

    -0.8056  -0.8052   5.9696   5.9698   6.2107   6.2110   9.5129   9.5130
    10.1742  10.1747

          k =-0.1000 0.5000-0.1000 (  7518 PWs)   bands (ev):

    -0.8056  -0.8052   5.9695   5.9698   6.2107   6.2110   9.5128   9.5130
    10.1743  10.1746

          k =-0.1000-0.3000 0.3000 (  7513 PWs)   bands (ev):

    -1.5204   2.0156   2.0174   5.3101   5.5759   8.7952   8.7975   9.1499
    12.1862  12.1898

          k =-0.1000 0.3000-0.3000 (  7513 PWs)   bands (ev):

    -1.5204   2.0156   2.0174   5.3101   5.5759   8.7952   8.7975   9.1499
    12.1861  12.1899

          k = 0.1000-0.3000-0.3000 (  7513 PWs)   bands (ev):

    -1.5204   2.0149   2.0181   5.3101   5.5759   8.7942   8.7985   9.1499
    12.1851  12.1916

          k = 0.3000 0.1000-0.3000 (  7513 PWs)   bands (ev):

    -1.5204   2.0162   2.0168   5.3101   5.5759   8.7960   8.7967   9.1499
    12.1875  12.1889

          k =-0.3000-0.1000-0.3000 (  7513 PWs)   bands (ev):

    -1.5204   2.0157   2.0173   5.3101   5.5759   8.7952   8.7975   9.1499
    12.1867  12.1902

          k = 0.3000-0.1000 0.3000 (  7513 PWs)   bands (ev):

    -1.5204   2.0157   2.0173   5.3101   5.5759   8.7952   8.7975   9.1499
    12.1865  12.1890

          k =-0.3000 0.1000 0.3000 (  7513 PWs)   bands (ev):

    -1.5204   2.0162   2.0168   5.3101   5.5759   8.7960   8.7967   9.1499
    12.1876  12.1884

          k = 0.3000-0.3000 0.1000 (  7513 PWs)   bands (ev):

    -1.5204   2.0157   2.0173   5.3101   5.5759   8.7952   8.7975   9.1499
    12.1864  12.1902

          k =-0.3000-0.3000-0.1000 (  7513 PWs)   bands (ev):

    -1.5204   2.0147   2.0183   5.3101   5.5759   8.7939   8.7988   9.1499
    12.1847  12.1918

          k = 0.3000 0.3000-0.1000 (  7513 PWs)   bands (ev):

    -1.5204   2.0147   2.0183   5.3101   5.5759   8.7939   8.7988   9.1499
    12.1846  12.1921

          k =-0.3000 0.3000 0.1000 (  7513 PWs)   bands (ev):

    -1.5204   2.0157   2.0173   5.3101   5.5759   8.7952   8.7975   9.1499
    12.1865  12.1901

          k =-0.1000 0.3000 0.5000 (  7518 PWs)   bands (ev):

    -0.0972  -0.0902   3.4037   3.4108   6.7762   6.7838  10.1394  10.1474
    10.4846  10.4911

          k = 0.3000 0.1000 0.5000 (  7518 PWs)   bands (ev):

    -0.0972  -0.0902   3.4037   3.4108   6.7763   6.7838  10.1394  10.1474
    10.4846  10.4911

          k = 0.3000-0.1000-0.5000 (  7518 PWs)   bands (ev):

    -0.0972  -0.0902   3.4037   3.4108   6.7763   6.7838  10.1394  10.1474
    10.4846  10.4911

          k =-0.5000-0.3000 0.1000 (  7518 PWs)   bands (ev):

    -0.0942  -0.0932   3.4068   3.4077   6.7795   6.7805  10.1429  10.1439
    10.4874  10.4883

          k = 0.5000-0.3000-0.1000 (  7518 PWs)   bands (ev):

    -0.0942  -0.0932   3.4068   3.4077   6.7795   6.7805  10.1429  10.1439
    10.4874  10.4883

          k =-0.1000-0.5000 0.3000 (  7518 PWs)   bands (ev):

    -0.0939  -0.0935   3.4070   3.4075   6.7798   6.7802  10.1432  10.1436
    10.4876  10.4881

          k =-0.1000 0.5000-0.3000 (  7518 PWs)   bands (ev):

    -0.0939  -0.0935   3.4070   3.4075   6.7798   6.7802  10.1432  10.1436
    10.4876  10.4881

          k = 0.3000-0.5000 0.1000 (  7518 PWs)   bands (ev):

    -0.0939  -0.0935   3.4070   3.4075   6.7798   6.7803  10.1432  10.1436
    10.4876  10.4881

          k = 0.3000 0.5000-0.1000 (  7518 PWs)   bands (ev):

    -0.0939  -0.0935   3.4070   3.4075   6.7798   6.7803  10.1431  10.1436
    10.4876  10.4881

          k =-0.5000 0.1000 0.3000 (  7518 PWs)   bands (ev):

    -0.0942  -0.0932   3.4068   3.4077   6.7795   6.7805  10.1429  10.1439
    10.4874  10.4883

          k = 0.5000-0.1000 0.3000 (  7518 PWs)   bands (ev):

    -0.0942  -0.0932   3.4068   3.4077   6.7795   6.7805  10.1429  10.1439
    10.4874  10.4883

          k =-0.5000 0.1000 0.5000 (  7500 PWs)   bands (ev):

     1.3152   1.3159   1.3219   1.3233   8.1279   8.1286   8.1352   8.1369
    11.8270  11.8318

          k =-0.5000 0.5000 0.1000 (  7500 PWs)   bands (ev):

     1.3172   1.3183   1.3198   1.3211   8.1296   8.1310   8.1331   8.1347
    11.8294  11.8302

          k =-0.3000-0.3000 0.3000 (  7532 PWs)   bands (ev):

    -0.8052   2.7116   2.7137   2.7156   6.1654   6.1676   6.1697   9.5499
    13.0691  13.0725

          k =-0.3000 0.3000-0.3000 (  7532 PWs)   bands (ev):

    -0.8052   2.7122   2.7136   2.7151   6.1661   6.1676   6.1691   9.5499
    13.0697  13.0716

          k = 0.3000-0.3000-0.3000 (  7532 PWs)   bands (ev):

    -0.8052   2.7119   2.7137   2.7154   6.1657   6.1676   6.1695   9.5499
    13.0707  13.0718

          k =-0.3000 0.3000 0.5000 (  7520 PWs)   bands (ev):

     0.6112   0.6181   3.9823   3.9829   4.2312   4.2321   7.5259   7.5333
    14.1695  14.5697

          k =-0.5000-0.3000 0.3000 (  7520 PWs)   bands (ev):

     0.6142   0.6151   3.9824   3.9829   4.2312   4.2320   7.5292   7.5301
    14.1695  14.5696

          k = 0.5000-0.3000-0.3000 (  7520 PWs)   bands (ev):

     0.6142   0.6151   3.9824   3.9829   4.2312   4.2320   7.5291   7.5301
    14.1696  14.5696

          k =-0.3000-0.5000 0.3000 (  7520 PWs)   bands (ev):

     0.6144   0.6149   3.9826   3.9827   4.2314   4.2318   7.5294   7.5299
    14.5685  14.5691

          k =-0.3000 0.5000-0.3000 (  7520 PWs)   bands (ev):

     0.6144   0.6149   3.9825   3.9828   4.2315   4.2318   7.5294   7.5299
    14.1692  14.5692

          k =-0.5000 0.3000 0.5000 (  7532 PWs)   bands (ev):

     2.0165   2.0171   2.0232   2.0245   5.4857   5.4864   5.4926   5.4940
    15.6212  15.6246

          k =-0.5000 0.5000 0.3000 (  7532 PWs)   bands (ev):

     2.0184   2.0195   2.0210   2.0223   5.4877   5.4888   5.4905   5.4918
    15.6231  15.6249

     the Fermi energy is     8.0539 ev

!    total energy              =    -157.99997537 Ry
     Harris-Foulkes estimate   =    -157.99997547 Ry
     estimated scf accuracy    <       0.00000093 Ry

     total all-electron energy =     -1942.571097 Ry

     The total energy is the sum of the following terms:

     one-electron contribution =      12.66551223 Ry
     hartree contribution      =       0.02378618 Ry
     xc contribution           =     -10.36289478 Ry
     ewald contribution        =     -21.61650269 Ry
     one-center paw contrib.   =    -138.70806080 Ry
     smearing contrib. (-TS)   =      -0.00181550 Ry

     convergence has been achieved in   6 iterations

     Forces acting on atoms (cartesian axes, Ry/au):

     atom    1 type  1   force =     0.00005779   -0.00004736    0.00020317
     atom    2 type  1   force =    -0.00015343    0.00016299    0.00020611
     atom    3 type  1   force =     0.00003578    0.00005518   -0.00030019
     atom    4 type  1   force =     0.00005986   -0.00017081   -0.00010909

     Total force =     0.000528     Total SCF correction =     0.000226
     SCF correction compared to forces is large: reduce conv_thr to get better values


     Computing stress (Cartesian axis) and pressure

          total   stress  (Ry/bohr**3)                   (kbar)     P=   -0.86
  -0.00000584   0.00000001   0.00000001         -0.86      0.00      0.00
   0.00000001  -0.00000582   0.00000001          0.00     -0.86      0.00
   0.00000001   0.00000001  -0.00000583          0.00      0.00     -0.86


     Writing output data file fe_scf_fcc_2.save/

     init_run     :      1.00s CPU      1.03s WALL (       1 calls)
     electrons    :     11.68s CPU     12.09s WALL (       1 calls)
     forces       :      0.26s CPU      0.26s WALL (       1 calls)
     stress       :      0.56s CPU      0.57s WALL (       1 calls)

     Called by init_run:
     wfcinit      :      0.87s CPU      0.89s WALL (       1 calls)
     potinit      :      0.04s CPU      0.05s WALL (       1 calls)
     hinit0       :      0.07s CPU      0.07s WALL (       1 calls)

     Called by electrons:
     c_bands      :      9.88s CPU     10.20s WALL (       7 calls)
     sum_band     :      1.49s CPU      1.58s WALL (       7 calls)
     v_of_rho     :      0.08s CPU      0.08s WALL (       7 calls)
     newd         :      0.05s CPU      0.05s WALL (       7 calls)
     PAW_pot      :      0.22s CPU      0.22s WALL (       7 calls)
     mix_rho      :      0.01s CPU      0.01s WALL (       7 calls)

     Called by c_bands:
     init_us_2    :      0.29s CPU      0.30s WALL (    1071 calls)
     cegterg      :      9.43s CPU      9.75s WALL (     441 calls)

     Called by sum_band:
     sum_band:bec :      0.00s CPU      0.00s WALL (     441 calls)
     addusdens    :      0.02s CPU      0.03s WALL (       7 calls)

     Called by *egterg:
     h_psi        :      7.56s CPU      7.83s WALL (    1578 calls)
     s_psi        :      0.63s CPU      0.65s WALL (    1578 calls)
     g_psi        :      0.05s CPU      0.05s WALL (    1074 calls)
     cdiaghg      :      0.20s CPU      0.20s WALL (    1452 calls)

     Called by h_psi:
     h_psi:pot    :      7.53s CPU      7.80s WALL (    1578 calls)
     h_psi:calbec :      0.85s CPU      0.89s WALL (    1578 calls)
     vloc_psi     :      6.05s CPU      6.26s WALL (    1578 calls)
     add_vuspsi   :      0.63s CPU      0.65s WALL (    1578 calls)

     General routines
     calbec       :      1.41s CPU      1.47s WALL (    2334 calls)
     fft          :      0.05s CPU      0.05s WALL (     103 calls)
     ffts         :      0.00s CPU      0.00s WALL (       7 calls)
     fftw         :      6.62s CPU      6.87s WALL (   29622 calls)

     Parallel routines
     fft_scatt_xy :      0.73s CPU      0.75s WALL (   29732 calls)
     fft_scatt_yz :      1.91s CPU      1.98s WALL (   29732 calls)

     PWSCF        :     13.87s CPU     14.37s WALL


   This run was terminated on:   7: 5:11  10Apr2020            

=------------------------------------------------------------------------------=
   JOB DONE.
=------------------------------------------------------------------------------=
