
     Program PWSCF v.6.4.1 starts on 10Apr2020 at  7: 2: 8 

     This program is part of the open-source Quantum ESPRESSO suite
     for quantum simulation of materials; please cite
         "P. Giannozzi et al., J. Phys.:Condens. Matter 21 395502 (2009);
         "P. Giannozzi et al., J. Phys.:Condens. Matter 29 465901 (2017);
          URL http://www.quantum-espresso.org", 
     in publications or presentations arising from this work. More details at
     http://www.quantum-espresso.org/quote

     Parallel version (MPI), running on     4 processors

     MPI processes distributed on     1 nodes
     R & G space division:  proc/nbgrp/npool/nimage =       4
     Reading input from wd/ecut/file_000576.in
Warning: card &IONS ignored
Warning: card ION_DYNAMICS = 'BFGS', ignored
Warning: card / ignored
Warning: card &CELL ignored
Warning: card CELL_DYNAMICS = 'BFGS', ignored
Warning: card CELL_FACTOR = 2.0, ignored
Warning: card PRESS = 0.0, ignored
Warning: card / ignored

     Current dimensions of program PWSCF are:
     Max number of different atomic species (ntypx) = 10
     Max number of k-points (npk) =  40000
     Max angular momentum in pseudopotentials (lmaxx) =  3
               file Al.pbe-nl-kjpaw_psl.1.0.0.UPF: wavefunction(s)  3S 3P renormalized

     Subspace diagonalization in iterative solution of the eigenvalue problem:
     a serial algorithm will be used


     Parallelization info
     --------------------
     sticks:   dense  smooth     PW     G-vecs:    dense   smooth      PW
     Min         347     243     73                 9781     5745     947
     Max         348     244     74                 9784     5748     950
     Sum        1389     973    293                39127    22983    3791



     bravais-lattice index     =            0
     lattice parameter (alat)  =       7.6356  a.u.
     unit-cell volume          =     445.1737 (a.u.)^3
     number of atoms/cell      =            4
     number of atomic types    =            1
     number of electrons       =        12.00
     number of Kohn-Sham states=           10
     kinetic-energy cutoff     =      52.5000  Ry
     charge density cutoff     =     300.0000  Ry
     convergence threshold     =      1.0E-06
     mixing beta               =       0.1000
     number of iterations used =           10  TF        mixing
     Exchange-correlation      = SLA PW PBX PBC ( 1  4  3  4 0 0)

     celldm(1)=   7.635600  celldm(2)=   0.000000  celldm(3)=   0.000000
     celldm(4)=   0.000000  celldm(5)=   0.000000  celldm(6)=   0.000000

     crystal axes: (cart. coord. in units of alat)
               a(1) = (   1.000000   0.000000   0.000000 )  
               a(2) = (   0.000000   1.000000   0.000000 )  
               a(3) = (   0.000000   0.000000   1.000000 )  

     reciprocal axes: (cart. coord. in units 2 pi/alat)
               b(1) = (  1.000000  0.000000  0.000000 )  
               b(2) = (  0.000000  1.000000  0.000000 )  
               b(3) = (  0.000000  0.000000  1.000000 )  


     PseudoPot. # 1 for Al read from file:
     /opt/pp/Al.pbe-nl-kjpaw_psl.1.0.0.UPF
     MD5 check sum: 1b67f78b73fe58c7924490f171ce8a1e
     Pseudo is Projector augmented-wave + core cor, Zval =  3.0
     Generated using "atomic" code by A. Dal Corso v.6.3
     Shape of augmentation charge: PSQ
     Using radial grid of 1135 points,  4 beta functions with: 
                l(1) =   0
                l(2) =   0
                l(3) =   1
                l(4) =   1
     Q(r) pseudized with 0 coefficients 


     atomic species   valence    mass     pseudopotential
        Al             3.00    26.98200     Al( 1.00)

     No symmetry found



   Cartesian axes

     site n.     atom                  positions (alat units)
         1           Al  tau(   1) = (  -0.0000654   0.0000190   0.0001361  )
         2           Al  tau(   2) = (   0.5001592   0.4996200   0.0001406  )
         3           Al  tau(   3) = (   0.4998143   0.0000610   0.5005910  )
         4           Al  tau(   4) = (  -0.0000400   0.5004374   0.5003674  )

     number of k points=    63  Marzari-Vanderbilt smearing, width (Ry)=  0.0200
                       cart. coord. in units 2pi/alat
        k(    1) = (   0.1000000   0.1000000   0.1000000), wk =   0.0320000
        k(    2) = (   0.1000000   0.1000000   0.3000000), wk =   0.0320000
        k(    3) = (   0.1000000   0.1000000  -0.5000000), wk =   0.0320000
        k(    4) = (   0.1000000   0.3000000   0.3000000), wk =   0.0320000
        k(    5) = (   0.1000000   0.3000000  -0.5000000), wk =   0.0320000
        k(    6) = (   0.1000000  -0.5000000  -0.5000000), wk =   0.0320000
        k(    7) = (   0.3000000   0.3000000   0.3000000), wk =   0.0320000
        k(    8) = (   0.3000000   0.3000000  -0.5000000), wk =   0.0320000
        k(    9) = (   0.3000000  -0.5000000  -0.5000000), wk =   0.0320000
        k(   10) = (  -0.5000000  -0.5000000  -0.5000000), wk =   0.0160000
        k(   11) = (  -0.1000000  -0.1000000   0.1000000), wk =   0.0320000
        k(   12) = (  -0.1000000   0.1000000  -0.1000000), wk =   0.0320000
        k(   13) = (   0.1000000  -0.1000000  -0.1000000), wk =   0.0320000
        k(   14) = (  -0.1000000  -0.1000000   0.3000000), wk =   0.0320000
        k(   15) = (  -0.1000000   0.1000000  -0.3000000), wk =   0.0320000
        k(   16) = (   0.1000000  -0.1000000  -0.3000000), wk =   0.0320000
        k(   17) = (   0.3000000  -0.1000000   0.1000000), wk =   0.0320000
        k(   18) = (  -0.3000000  -0.1000000  -0.1000000), wk =   0.0320000
        k(   19) = (   0.3000000   0.1000000  -0.1000000), wk =   0.0320000
        k(   20) = (  -0.3000000   0.1000000   0.1000000), wk =   0.0320000
        k(   21) = (  -0.1000000   0.3000000   0.1000000), wk =   0.0320000
        k(   22) = (  -0.1000000  -0.3000000  -0.1000000), wk =   0.0320000
        k(   23) = (   0.1000000   0.3000000  -0.1000000), wk =   0.0320000
        k(   24) = (   0.1000000  -0.3000000   0.1000000), wk =   0.0320000
        k(   25) = (  -0.1000000   0.1000000   0.5000000), wk =   0.0320000
        k(   26) = (  -0.5000000  -0.1000000   0.1000000), wk =   0.0320000
        k(   27) = (   0.5000000  -0.1000000  -0.1000000), wk =   0.0320000
        k(   28) = (  -0.1000000  -0.5000000   0.1000000), wk =   0.0320000
        k(   29) = (  -0.1000000   0.5000000  -0.1000000), wk =   0.0320000
        k(   30) = (  -0.1000000  -0.3000000   0.3000000), wk =   0.0320000
        k(   31) = (  -0.1000000   0.3000000  -0.3000000), wk =   0.0320000
        k(   32) = (   0.1000000  -0.3000000  -0.3000000), wk =   0.0320000
        k(   33) = (   0.3000000   0.1000000  -0.3000000), wk =   0.0320000
        k(   34) = (  -0.3000000  -0.1000000  -0.3000000), wk =   0.0320000
        k(   35) = (   0.3000000  -0.1000000   0.3000000), wk =   0.0320000
        k(   36) = (  -0.3000000   0.1000000   0.3000000), wk =   0.0320000
        k(   37) = (   0.3000000  -0.3000000   0.1000000), wk =   0.0320000
        k(   38) = (  -0.3000000  -0.3000000  -0.1000000), wk =   0.0320000
        k(   39) = (   0.3000000   0.3000000  -0.1000000), wk =   0.0320000
        k(   40) = (  -0.3000000   0.3000000   0.1000000), wk =   0.0320000
        k(   41) = (  -0.1000000   0.3000000   0.5000000), wk =   0.0320000
        k(   42) = (   0.3000000   0.1000000   0.5000000), wk =   0.0320000
        k(   43) = (   0.3000000  -0.1000000  -0.5000000), wk =   0.0320000
        k(   44) = (  -0.5000000  -0.3000000   0.1000000), wk =   0.0320000
        k(   45) = (   0.5000000  -0.3000000  -0.1000000), wk =   0.0320000
        k(   46) = (  -0.1000000  -0.5000000   0.3000000), wk =   0.0320000
        k(   47) = (  -0.1000000   0.5000000  -0.3000000), wk =   0.0320000
        k(   48) = (   0.3000000  -0.5000000   0.1000000), wk =   0.0320000
        k(   49) = (   0.3000000   0.5000000  -0.1000000), wk =   0.0320000
        k(   50) = (  -0.5000000   0.1000000   0.3000000), wk =   0.0320000
        k(   51) = (   0.5000000  -0.1000000   0.3000000), wk =   0.0320000
        k(   52) = (  -0.5000000   0.1000000   0.5000000), wk =   0.0320000
        k(   53) = (  -0.5000000   0.5000000   0.1000000), wk =   0.0320000
        k(   54) = (  -0.3000000  -0.3000000   0.3000000), wk =   0.0320000
        k(   55) = (  -0.3000000   0.3000000  -0.3000000), wk =   0.0320000
        k(   56) = (   0.3000000  -0.3000000  -0.3000000), wk =   0.0320000
        k(   57) = (  -0.3000000   0.3000000   0.5000000), wk =   0.0320000
        k(   58) = (  -0.5000000  -0.3000000   0.3000000), wk =   0.0320000
        k(   59) = (   0.5000000  -0.3000000  -0.3000000), wk =   0.0320000
        k(   60) = (  -0.3000000  -0.5000000   0.3000000), wk =   0.0320000
        k(   61) = (  -0.3000000   0.5000000  -0.3000000), wk =   0.0320000
        k(   62) = (  -0.5000000   0.3000000   0.5000000), wk =   0.0320000
        k(   63) = (  -0.5000000   0.5000000   0.3000000), wk =   0.0320000

     Dense  grid:    39127 G-vectors     FFT dimensions: (  45,  45,  45)

     Smooth grid:    22983 G-vectors     FFT dimensions: (  36,  36,  36)

     Estimated max dynamical RAM per process >      22.11 MB

     Estimated total dynamical RAM >      88.43 MB

     Initial potential from superposition of free atoms

     starting charge   11.99084, renormalised to   12.00000
     Starting wfcs are   16 randomized atomic wfcs
     Checking if some PAW data can be deallocated... 

     total cpu time spent up to now is        0.8 secs

     Self-consistent Calculation

     iteration #  1     ecut=    52.50 Ry     beta= 0.10
     Davidson diagonalization with overlap
     ethr =  1.00E-02,  avg # of iterations =  3.1

     Threshold (ethr) on eigenvalues was too large:
     Diagonalizing with lowered threshold

     Davidson diagonalization with overlap
     ethr =  1.95E-04,  avg # of iterations =  3.7

     total cpu time spent up to now is        2.6 secs

     total energy              =    -158.00553446 Ry
     Harris-Foulkes estimate   =    -158.00634475 Ry
     estimated scf accuracy    <       0.02272196 Ry

     iteration #  2     ecut=    52.50 Ry     beta= 0.10
     Davidson diagonalization with overlap
     ethr =  1.89E-04,  avg # of iterations =  1.0

     total cpu time spent up to now is        3.3 secs

     total energy              =    -157.99954501 Ry
     Harris-Foulkes estimate   =    -158.00563812 Ry
     estimated scf accuracy    <       0.01960333 Ry

     iteration #  3     ecut=    52.50 Ry     beta= 0.10
     Davidson diagonalization with overlap
     ethr =  1.63E-04,  avg # of iterations =  1.0

     total cpu time spent up to now is        3.9 secs

     total energy              =    -157.99988800 Ry
     Harris-Foulkes estimate   =    -157.99992488 Ry
     estimated scf accuracy    <       0.00008228 Ry

     iteration #  4     ecut=    52.50 Ry     beta= 0.10
     Davidson diagonalization with overlap
     c_bands:  1 eigenvalues not converged
     ethr =  6.86E-07,  avg # of iterations =  5.0

     total cpu time spent up to now is        5.1 secs

     total energy              =    -157.99994973 Ry
     Harris-Foulkes estimate   =    -157.99996275 Ry
     estimated scf accuracy    <       0.00005472 Ry

     iteration #  5     ecut=    52.50 Ry     beta= 0.10
     Davidson diagonalization with overlap
     ethr =  4.56E-07,  avg # of iterations =  1.3

     total cpu time spent up to now is        5.8 secs

     total energy              =    -157.99990734 Ry
     Harris-Foulkes estimate   =    -157.99995097 Ry
     estimated scf accuracy    <       0.00004038 Ry

     iteration #  6     ecut=    52.50 Ry     beta= 0.10
     Davidson diagonalization with overlap
     ethr =  3.37E-07,  avg # of iterations =  2.0

     total cpu time spent up to now is        6.6 secs

     End of self-consistent calculation

          k = 0.1000 0.1000 0.1000 (  2854 PWs)   bands (ev):

    -2.9616   4.0413   4.0436   4.0459   7.7411   7.7437   7.7463  10.7600
    10.7629  10.7658

          k = 0.1000 0.1000 0.3000 (  2861 PWs)   bands (ev):

    -2.2392   1.3155   4.7244   4.7278   8.0296   8.0356   8.5366   8.5372
    11.3560  11.7981

          k = 0.1000 0.1000-0.5000 (  2860 PWs)   bands (ev):

    -0.8088  -0.8019   5.9693   5.9700   6.2105   6.2114   9.5128   9.5132
    10.1739  10.1750

          k = 0.1000 0.3000 0.3000 (  2872 PWs)   bands (ev):

    -1.5204   2.0149   2.0181   5.3101   5.5760   8.7943   8.7985   9.1499
    12.1853  12.1917

          k = 0.1000 0.3000-0.5000 (  2848 PWs)   bands (ev):

    -0.0971  -0.0902   3.4037   3.4108   6.7763   6.7838  10.1395  10.1474
    10.4846  10.4912

          k = 0.1000-0.5000-0.5000 (  2856 PWs)   bands (ev):

     1.3152   1.3156   1.3222   1.3234   8.1277   8.1283   8.1357   8.1370
    11.8265  11.8331

          k = 0.3000 0.3000 0.3000 (  2860 PWs)   bands (ev):

    -0.8052   2.7112   2.7137   2.7162   6.1650   6.1677   6.1703   9.5499
    13.0687  13.0741

          k = 0.3000 0.3000-0.5000 (  2852 PWs)   bands (ev):

     0.6112   0.6181   3.9823   3.9829   4.2312   4.2322   7.5260   7.5334
    14.1692  14.1696

          k = 0.3000-0.5000-0.5000 (  2884 PWs)   bands (ev):

     2.0164   2.0169   2.0235   2.0246   5.4857   5.4861   5.4930   5.4941
    15.6206  15.6261

          k =-0.5000-0.5000-0.5000 (  2872 PWs)   bands (ev):

     3.3108   3.3110   3.3112   3.3118   3.5274   3.5285   3.5287   3.5292
    19.3109  19.3113

          k =-0.1000-0.1000 0.1000 (  2854 PWs)   bands (ev):

    -2.9616   4.0417   4.0436   4.0454   7.7416   7.7438   7.7458  10.7605
    10.7629  10.7652

          k =-0.1000 0.1000-0.1000 (  2854 PWs)   bands (ev):

    -2.9616   4.0423   4.0436   4.0449   7.7422   7.7437   7.7452  10.7612
    10.7629  10.7646

          k = 0.1000-0.1000-0.1000 (  2854 PWs)   bands (ev):

    -2.9616   4.0419   4.0436   4.0452   7.7418   7.7438   7.7456  10.7608
    10.7629  10.7650

          k =-0.1000-0.1000 0.3000 (  2861 PWs)   bands (ev):

    -2.2392   1.3155   4.7244   4.7278   8.0296   8.0356   8.5366   8.5372
    11.3560  11.7960

          k =-0.1000 0.1000-0.3000 (  2861 PWs)   bands (ev):

    -2.2392   1.3155   4.7254   4.7269   8.0312   8.0340   8.5368   8.5370
    11.3560  11.7960

          k = 0.1000-0.1000-0.3000 (  2861 PWs)   bands (ev):

    -2.2392   1.3155   4.7254   4.7269   8.0312   8.0340   8.5368   8.5371
    11.3560  11.7964

          k = 0.3000-0.1000 0.1000 (  2861 PWs)   bands (ev):

    -2.2392   1.3155   4.7253   4.7269   8.0312   8.0340   8.5367   8.5371
    11.3560  11.7963

          k =-0.3000-0.1000-0.1000 (  2861 PWs)   bands (ev):

    -2.2392   1.3155   4.7247   4.7276   8.0300   8.0352   8.5366   8.5372
    11.3560  11.7957

          k = 0.3000 0.1000-0.1000 (  2861 PWs)   bands (ev):

    -2.2392   1.3155   4.7253   4.7269   8.0312   8.0340   8.5367   8.5371
    11.3560  11.7970

          k =-0.3000 0.1000 0.1000 (  2861 PWs)   bands (ev):

    -2.2392   1.3155   4.7247   4.7276   8.0300   8.0352   8.5366   8.5372
    11.3560  11.7962

          k =-0.1000 0.3000 0.1000 (  2861 PWs)   bands (ev):

    -2.2392   1.3155   4.7259   4.7264   8.0322   8.0330   8.5368   8.5370
    11.3560  11.7957

          k =-0.1000-0.3000-0.1000 (  2861 PWs)   bands (ev):

    -2.2392   1.3155   4.7254   4.7269   8.0312   8.0340   8.5369   8.5369
    11.3560  11.7955

          k = 0.1000 0.3000-0.1000 (  2861 PWs)   bands (ev):

    -2.2392   1.3155   4.7259   4.7264   8.0322   8.0330   8.5368   8.5370
    11.3560  11.7958

          k = 0.1000-0.3000 0.1000 (  2861 PWs)   bands (ev):

    -2.2392   1.3155   4.7254   4.7269   8.0312   8.0340   8.5369   8.5369
    11.3560  11.7954

          k =-0.1000 0.1000 0.5000 (  2860 PWs)   bands (ev):

    -0.8088  -0.8019   5.9694   5.9700   6.2104   6.2114   9.5128   9.5132
    10.1739  10.1750

          k =-0.5000-0.1000 0.1000 (  2860 PWs)   bands (ev):

    -0.8059  -0.8049   5.9695   5.9700   6.2105   6.2113   9.5128   9.5132
    10.1740  10.1749

          k = 0.5000-0.1000-0.1000 (  2860 PWs)   bands (ev):

    -0.8059  -0.8049   5.9695   5.9700   6.2105   6.2113   9.5129   9.5131
    10.1740  10.1749

          k =-0.1000-0.5000 0.1000 (  2860 PWs)   bands (ev):

    -0.8056  -0.8051   5.9696   5.9698   6.2107   6.2111   9.5129   9.5131
    10.1742  10.1747

          k =-0.1000 0.5000-0.1000 (  2860 PWs)   bands (ev):

    -0.8056  -0.8051   5.9696   5.9699   6.2107   6.2110   9.5129   9.5131
    10.1743  10.1746

          k =-0.1000-0.3000 0.3000 (  2872 PWs)   bands (ev):

    -1.5204   2.0156   2.0174   5.3101   5.5760   8.7952   8.7976   9.1499
    12.1861  12.1903

          k =-0.1000 0.3000-0.3000 (  2872 PWs)   bands (ev):

    -1.5204   2.0156   2.0174   5.3101   5.5760   8.7952   8.7976   9.1499
    12.1863  12.1895

          k = 0.1000-0.3000-0.3000 (  2872 PWs)   bands (ev):

    -1.5204   2.0149   2.0181   5.3101   5.5760   8.7943   8.7985   9.1499
    12.1852  12.1916

          k = 0.3000 0.1000-0.3000 (  2872 PWs)   bands (ev):

    -1.5204   2.0162   2.0168   5.3101   5.5760   8.7960   8.7968   9.1499
    12.1881  12.1889

          k =-0.3000-0.1000-0.3000 (  2872 PWs)   bands (ev):

    -1.5204   2.0157   2.0173   5.3101   5.5760   8.7953   8.7975   9.1499
    12.1860  12.1902

          k = 0.3000-0.1000 0.3000 (  2872 PWs)   bands (ev):

    -1.5204   2.0157   2.0173   5.3101   5.5760   8.7953   8.7975   9.1499
    12.1864  12.1898

          k =-0.3000 0.1000 0.3000 (  2872 PWs)   bands (ev):

    -1.5204   2.0162   2.0168   5.3101   5.5760   8.7960   8.7968   9.1499
    12.1872  12.1890

          k = 0.3000-0.3000 0.1000 (  2872 PWs)   bands (ev):

    -1.5204   2.0157   2.0173   5.3101   5.5760   8.7953   8.7976   9.1499
    12.1864  12.1903

          k =-0.3000-0.3000-0.1000 (  2872 PWs)   bands (ev):

    -1.5204   2.0147   2.0183   5.3101   5.5760   8.7939   8.7989   9.1499
    12.1845  12.1916

          k = 0.3000 0.3000-0.1000 (  2872 PWs)   bands (ev):

    -1.5204   2.0147   2.0183   5.3101   5.5760   8.7939   8.7989   9.1499
    12.1846  12.1921

          k =-0.3000 0.3000 0.1000 (  2872 PWs)   bands (ev):

    -1.5204   2.0157   2.0173   5.3101   5.5760   8.7953   8.7976   9.1499
    12.1866  12.1903

          k =-0.1000 0.3000 0.5000 (  2848 PWs)   bands (ev):

    -0.0971  -0.0902   3.4037   3.4108   6.7763   6.7838  10.1395  10.1474
    10.4846  10.4912

          k = 0.3000 0.1000 0.5000 (  2848 PWs)   bands (ev):

    -0.0971  -0.0902   3.4037   3.4108   6.7763   6.7838  10.1395  10.1474
    10.4846  10.4912

          k = 0.3000-0.1000-0.5000 (  2848 PWs)   bands (ev):

    -0.0971  -0.0902   3.4037   3.4108   6.7763   6.7838  10.1395  10.1474
    10.4846  10.4912

          k =-0.5000-0.3000 0.1000 (  2848 PWs)   bands (ev):

    -0.0942  -0.0932   3.4068   3.4077   6.7795   6.7806  10.1430  10.1440
    10.4875  10.4883

          k = 0.5000-0.3000-0.1000 (  2848 PWs)   bands (ev):

    -0.0942  -0.0932   3.4068   3.4077   6.7796   6.7806  10.1429  10.1440
    10.4875  10.4883

          k =-0.1000-0.5000 0.3000 (  2848 PWs)   bands (ev):

    -0.0939  -0.0934   3.4070   3.4075   6.7798   6.7803  10.1432  10.1437
    10.4877  10.4881

          k =-0.1000 0.5000-0.3000 (  2848 PWs)   bands (ev):

    -0.0939  -0.0935   3.4070   3.4075   6.7798   6.7803  10.1432  10.1437
    10.4877  10.4881

          k = 0.3000-0.5000 0.1000 (  2848 PWs)   bands (ev):

    -0.0939  -0.0934   3.4070   3.4075   6.7798   6.7803  10.1432  10.1437
    10.4877  10.4881

          k = 0.3000 0.5000-0.1000 (  2848 PWs)   bands (ev):

    -0.0939  -0.0934   3.4070   3.4075   6.7798   6.7803  10.1432  10.1437
    10.4877  10.4881

          k =-0.5000 0.1000 0.3000 (  2848 PWs)   bands (ev):

    -0.0942  -0.0932   3.4068   3.4077   6.7795   6.7806  10.1429  10.1440
    10.4875  10.4883

          k = 0.5000-0.1000 0.3000 (  2848 PWs)   bands (ev):

    -0.0942  -0.0932   3.4068   3.4077   6.7795   6.7806  10.1429  10.1440
    10.4875  10.4883

          k =-0.5000 0.1000 0.5000 (  2856 PWs)   bands (ev):

     1.3152   1.3159   1.3220   1.3233   8.1279   8.1286   8.1353   8.1369
    11.8292  11.8309

          k =-0.5000 0.5000 0.1000 (  2856 PWs)   bands (ev):

     1.3172   1.3183   1.3198   1.3211   8.1297   8.1311   8.1332   8.1348
    11.8294  11.8302

          k =-0.3000-0.3000 0.3000 (  2860 PWs)   bands (ev):

    -0.8052   2.7117   2.7137   2.7156   6.1655   6.1677   6.1698   9.5499
    13.0703  13.0720

          k =-0.3000 0.3000-0.3000 (  2860 PWs)   bands (ev):

    -0.8052   2.7123   2.7137   2.7151   6.1661   6.1676   6.1692   9.5499
    13.0708  13.0715

          k = 0.3000-0.3000-0.3000 (  2860 PWs)   bands (ev):

    -0.8052   2.7119   2.7137   2.7154   6.1657   6.1677   6.1695   9.5499
    13.0697  13.0714

          k =-0.3000 0.3000 0.5000 (  2852 PWs)   bands (ev):

     0.6112   0.6181   3.9823   3.9829   4.2312   4.2322   7.5260   7.5334
    14.1692  14.1696

          k =-0.5000-0.3000 0.3000 (  2852 PWs)   bands (ev):

     0.6142   0.6151   3.9825   3.9829   4.2313   4.2320   7.5292   7.5302
    14.1699  14.5696

          k = 0.5000-0.3000-0.3000 (  2852 PWs)   bands (ev):

     0.6142   0.6151   3.9825   3.9829   4.2313   4.2320   7.5292   7.5302
    14.1693  14.1696

          k =-0.3000-0.5000 0.3000 (  2852 PWs)   bands (ev):

     0.6144   0.6149   3.9826   3.9828   4.2314   4.2318   7.5294   7.5299
    14.1694  14.1695

          k =-0.3000 0.5000-0.3000 (  2852 PWs)   bands (ev):

     0.6144   0.6149   3.9825   3.9828   4.2315   4.2318   7.5294   7.5299
    14.1695  14.5694

          k =-0.5000 0.3000 0.5000 (  2884 PWs)   bands (ev):

     2.0165   2.0172   2.0232   2.0246   5.4857   5.4864   5.4927   5.4941
    15.6232  15.6274

          k =-0.5000 0.5000 0.3000 (  2884 PWs)   bands (ev):

     2.0184   2.0195   2.0211   2.0224   5.4877   5.4888   5.4905   5.4918
    15.6229  15.6255

     the Fermi energy is     8.0539 ev

!    total energy              =    -157.99991735 Ry
     Harris-Foulkes estimate   =    -157.99991749 Ry
     estimated scf accuracy    <       0.00000095 Ry

     total all-electron energy =     -1942.571039 Ry

     The total energy is the sum of the following terms:

     one-electron contribution =      12.66560396 Ry
     hartree contribution      =       0.02378634 Ry
     xc contribution           =     -10.36291019 Ry
     ewald contribution        =     -21.61650269 Ry
     one-center paw contrib.   =    -138.70807919 Ry
     smearing contrib. (-TS)   =      -0.00181557 Ry

     convergence has been achieved in   6 iterations

     Forces acting on atoms (cartesian axes, Ry/au):

     atom    1 type  1   force =     0.00005641   -0.00004553    0.00020465
     atom    2 type  1   force =    -0.00015152    0.00016307    0.00020629
     atom    3 type  1   force =     0.00003696    0.00005293   -0.00029994
     atom    4 type  1   force =     0.00005815   -0.00017047   -0.00011100

     Total force =     0.000527     Total SCF correction =     0.000221
     SCF correction compared to forces is large: reduce conv_thr to get better values


     Computing stress (Cartesian axis) and pressure

          total   stress  (Ry/bohr**3)                   (kbar)     P=   -0.86
  -0.00000583   0.00000001   0.00000001         -0.86      0.00      0.00
   0.00000001  -0.00000582   0.00000000          0.00     -0.86      0.00
   0.00000001   0.00000000  -0.00000583          0.00      0.00     -0.86


     Writing output data file fe_scf_fcc_2.save/

     init_run     :      0.51s CPU      0.53s WALL (       1 calls)
     electrons    :      5.53s CPU      5.78s WALL (       1 calls)
     forces       :      0.11s CPU      0.12s WALL (       1 calls)
     stress       :      0.23s CPU      0.23s WALL (       1 calls)

     Called by init_run:
     wfcinit      :      0.39s CPU      0.41s WALL (       1 calls)
     potinit      :      0.05s CPU      0.05s WALL (       1 calls)
     hinit0       :      0.06s CPU      0.06s WALL (       1 calls)

     Called by electrons:
     c_bands      :      4.51s CPU      4.70s WALL (       7 calls)
     sum_band     :      0.73s CPU      0.78s WALL (       7 calls)
     v_of_rho     :      0.07s CPU      0.08s WALL (       7 calls)
     newd         :      0.04s CPU      0.04s WALL (       7 calls)
     PAW_pot      :      0.20s CPU      0.21s WALL (       7 calls)
     mix_rho      :      0.01s CPU      0.01s WALL (       7 calls)

     Called by c_bands:
     init_us_2    :      0.11s CPU      0.11s WALL (    1071 calls)
     cegterg      :      4.36s CPU      4.54s WALL (     441 calls)

     Called by sum_band:
     sum_band:bec :      0.00s CPU      0.00s WALL (     441 calls)
     addusdens    :      0.02s CPU      0.03s WALL (       7 calls)

     Called by *egterg:
     h_psi        :      3.66s CPU      3.82s WALL (    1580 calls)
     s_psi        :      0.23s CPU      0.24s WALL (    1580 calls)
     g_psi        :      0.02s CPU      0.02s WALL (    1076 calls)
     cdiaghg      :      0.18s CPU      0.19s WALL (    1454 calls)

     Called by h_psi:
     h_psi:pot    :      3.65s CPU      3.82s WALL (    1580 calls)
     h_psi:calbec :      0.31s CPU      0.33s WALL (    1580 calls)
     vloc_psi     :      3.10s CPU      3.24s WALL (    1580 calls)
     add_vuspsi   :      0.23s CPU      0.24s WALL (    1580 calls)

     General routines
     calbec       :      0.50s CPU      0.52s WALL (    2336 calls)
     fft          :      0.05s CPU      0.05s WALL (     115 calls)
     ffts         :      0.00s CPU      0.00s WALL (      14 calls)
     fftw         :      3.44s CPU      3.60s WALL (   29566 calls)
     interpolate  :      0.00s CPU      0.01s WALL (       7 calls)

     Parallel routines
     fft_scatt_xy :      0.29s CPU      0.31s WALL (   29695 calls)
     fft_scatt_yz :      0.98s CPU      1.04s WALL (   29695 calls)

     PWSCF        :      6.73s CPU      7.02s WALL


   This run was terminated on:   7: 2:15  10Apr2020            

=------------------------------------------------------------------------------=
   JOB DONE.
=------------------------------------------------------------------------------=
