
     Program PWSCF v.6.4.1 starts on 10Apr2020 at  6:41:54 

     This program is part of the open-source Quantum ESPRESSO suite
     for quantum simulation of materials; please cite
         "P. Giannozzi et al., J. Phys.:Condens. Matter 21 395502 (2009);
         "P. Giannozzi et al., J. Phys.:Condens. Matter 29 465901 (2017);
          URL http://www.quantum-espresso.org", 
     in publications or presentations arising from this work. More details at
     http://www.quantum-espresso.org/quote

     Parallel version (MPI), running on     4 processors

     MPI processes distributed on     1 nodes
     R & G space division:  proc/nbgrp/npool/nimage =       4
     Reading input from wd/ecut/file_000414.in
Warning: card &IONS ignored
Warning: card ION_DYNAMICS = 'BFGS', ignored
Warning: card / ignored
Warning: card &CELL ignored
Warning: card CELL_DYNAMICS = 'BFGS', ignored
Warning: card CELL_FACTOR = 2.0, ignored
Warning: card PRESS = 0.0, ignored
Warning: card / ignored

     Current dimensions of program PWSCF are:
     Max number of different atomic species (ntypx) = 10
     Max number of k-points (npk) =  40000
     Max angular momentum in pseudopotentials (lmaxx) =  3
               file Al.pbe-nl-kjpaw_psl.1.0.0.UPF: wavefunction(s)  3S 3P renormalized

     Subspace diagonalization in iterative solution of the eigenvalue problem:
     a serial algorithm will be used


     Parallelization info
     --------------------
     sticks:   dense  smooth     PW     G-vecs:    dense   smooth      PW
     Min         288     164     49                 7427     3132     527
     Max         292     165     50                 7428     3135     528
     Sum        1161     657    197                29711    12533    2109



     bravais-lattice index     =            0
     lattice parameter (alat)  =       7.6356  a.u.
     unit-cell volume          =     445.1737 (a.u.)^3
     number of atoms/cell      =            4
     number of atomic types    =            1
     number of electrons       =        12.00
     number of Kohn-Sham states=           10
     kinetic-energy cutoff     =      35.0000  Ry
     charge density cutoff     =     250.0000  Ry
     convergence threshold     =      1.0E-06
     mixing beta               =       0.1000
     number of iterations used =           10  TF        mixing
     Exchange-correlation      = SLA PW PBX PBC ( 1  4  3  4 0 0)

     celldm(1)=   7.635600  celldm(2)=   0.000000  celldm(3)=   0.000000
     celldm(4)=   0.000000  celldm(5)=   0.000000  celldm(6)=   0.000000

     crystal axes: (cart. coord. in units of alat)
               a(1) = (   1.000000   0.000000   0.000000 )  
               a(2) = (   0.000000   1.000000   0.000000 )  
               a(3) = (   0.000000   0.000000   1.000000 )  

     reciprocal axes: (cart. coord. in units 2 pi/alat)
               b(1) = (  1.000000  0.000000  0.000000 )  
               b(2) = (  0.000000  1.000000  0.000000 )  
               b(3) = (  0.000000  0.000000  1.000000 )  


     PseudoPot. # 1 for Al read from file:
     /opt/pp/Al.pbe-nl-kjpaw_psl.1.0.0.UPF
     MD5 check sum: 1b67f78b73fe58c7924490f171ce8a1e
     Pseudo is Projector augmented-wave + core cor, Zval =  3.0
     Generated using "atomic" code by A. Dal Corso v.6.3
     Shape of augmentation charge: PSQ
     Using radial grid of 1135 points,  4 beta functions with: 
                l(1) =   0
                l(2) =   0
                l(3) =   1
                l(4) =   1
     Q(r) pseudized with 0 coefficients 


     atomic species   valence    mass     pseudopotential
        Al             3.00    26.98200     Al( 1.00)

     No symmetry found



   Cartesian axes

     site n.     atom                  positions (alat units)
         1           Al  tau(   1) = (  -0.0000654   0.0000190   0.0001361  )
         2           Al  tau(   2) = (   0.5001592   0.4996200   0.0001406  )
         3           Al  tau(   3) = (   0.4998143   0.0000610   0.5005910  )
         4           Al  tau(   4) = (  -0.0000400   0.5004374   0.5003674  )

     number of k points=    63  Marzari-Vanderbilt smearing, width (Ry)=  0.0200
                       cart. coord. in units 2pi/alat
        k(    1) = (   0.1000000   0.1000000   0.1000000), wk =   0.0320000
        k(    2) = (   0.1000000   0.1000000   0.3000000), wk =   0.0320000
        k(    3) = (   0.1000000   0.1000000  -0.5000000), wk =   0.0320000
        k(    4) = (   0.1000000   0.3000000   0.3000000), wk =   0.0320000
        k(    5) = (   0.1000000   0.3000000  -0.5000000), wk =   0.0320000
        k(    6) = (   0.1000000  -0.5000000  -0.5000000), wk =   0.0320000
        k(    7) = (   0.3000000   0.3000000   0.3000000), wk =   0.0320000
        k(    8) = (   0.3000000   0.3000000  -0.5000000), wk =   0.0320000
        k(    9) = (   0.3000000  -0.5000000  -0.5000000), wk =   0.0320000
        k(   10) = (  -0.5000000  -0.5000000  -0.5000000), wk =   0.0160000
        k(   11) = (  -0.1000000  -0.1000000   0.1000000), wk =   0.0320000
        k(   12) = (  -0.1000000   0.1000000  -0.1000000), wk =   0.0320000
        k(   13) = (   0.1000000  -0.1000000  -0.1000000), wk =   0.0320000
        k(   14) = (  -0.1000000  -0.1000000   0.3000000), wk =   0.0320000
        k(   15) = (  -0.1000000   0.1000000  -0.3000000), wk =   0.0320000
        k(   16) = (   0.1000000  -0.1000000  -0.3000000), wk =   0.0320000
        k(   17) = (   0.3000000  -0.1000000   0.1000000), wk =   0.0320000
        k(   18) = (  -0.3000000  -0.1000000  -0.1000000), wk =   0.0320000
        k(   19) = (   0.3000000   0.1000000  -0.1000000), wk =   0.0320000
        k(   20) = (  -0.3000000   0.1000000   0.1000000), wk =   0.0320000
        k(   21) = (  -0.1000000   0.3000000   0.1000000), wk =   0.0320000
        k(   22) = (  -0.1000000  -0.3000000  -0.1000000), wk =   0.0320000
        k(   23) = (   0.1000000   0.3000000  -0.1000000), wk =   0.0320000
        k(   24) = (   0.1000000  -0.3000000   0.1000000), wk =   0.0320000
        k(   25) = (  -0.1000000   0.1000000   0.5000000), wk =   0.0320000
        k(   26) = (  -0.5000000  -0.1000000   0.1000000), wk =   0.0320000
        k(   27) = (   0.5000000  -0.1000000  -0.1000000), wk =   0.0320000
        k(   28) = (  -0.1000000  -0.5000000   0.1000000), wk =   0.0320000
        k(   29) = (  -0.1000000   0.5000000  -0.1000000), wk =   0.0320000
        k(   30) = (  -0.1000000  -0.3000000   0.3000000), wk =   0.0320000
        k(   31) = (  -0.1000000   0.3000000  -0.3000000), wk =   0.0320000
        k(   32) = (   0.1000000  -0.3000000  -0.3000000), wk =   0.0320000
        k(   33) = (   0.3000000   0.1000000  -0.3000000), wk =   0.0320000
        k(   34) = (  -0.3000000  -0.1000000  -0.3000000), wk =   0.0320000
        k(   35) = (   0.3000000  -0.1000000   0.3000000), wk =   0.0320000
        k(   36) = (  -0.3000000   0.1000000   0.3000000), wk =   0.0320000
        k(   37) = (   0.3000000  -0.3000000   0.1000000), wk =   0.0320000
        k(   38) = (  -0.3000000  -0.3000000  -0.1000000), wk =   0.0320000
        k(   39) = (   0.3000000   0.3000000  -0.1000000), wk =   0.0320000
        k(   40) = (  -0.3000000   0.3000000   0.1000000), wk =   0.0320000
        k(   41) = (  -0.1000000   0.3000000   0.5000000), wk =   0.0320000
        k(   42) = (   0.3000000   0.1000000   0.5000000), wk =   0.0320000
        k(   43) = (   0.3000000  -0.1000000  -0.5000000), wk =   0.0320000
        k(   44) = (  -0.5000000  -0.3000000   0.1000000), wk =   0.0320000
        k(   45) = (   0.5000000  -0.3000000  -0.1000000), wk =   0.0320000
        k(   46) = (  -0.1000000  -0.5000000   0.3000000), wk =   0.0320000
        k(   47) = (  -0.1000000   0.5000000  -0.3000000), wk =   0.0320000
        k(   48) = (   0.3000000  -0.5000000   0.1000000), wk =   0.0320000
        k(   49) = (   0.3000000   0.5000000  -0.1000000), wk =   0.0320000
        k(   50) = (  -0.5000000   0.1000000   0.3000000), wk =   0.0320000
        k(   51) = (   0.5000000  -0.1000000   0.3000000), wk =   0.0320000
        k(   52) = (  -0.5000000   0.1000000   0.5000000), wk =   0.0320000
        k(   53) = (  -0.5000000   0.5000000   0.1000000), wk =   0.0320000
        k(   54) = (  -0.3000000  -0.3000000   0.3000000), wk =   0.0320000
        k(   55) = (  -0.3000000   0.3000000  -0.3000000), wk =   0.0320000
        k(   56) = (   0.3000000  -0.3000000  -0.3000000), wk =   0.0320000
        k(   57) = (  -0.3000000   0.3000000   0.5000000), wk =   0.0320000
        k(   58) = (  -0.5000000  -0.3000000   0.3000000), wk =   0.0320000
        k(   59) = (   0.5000000  -0.3000000  -0.3000000), wk =   0.0320000
        k(   60) = (  -0.3000000  -0.5000000   0.3000000), wk =   0.0320000
        k(   61) = (  -0.3000000   0.5000000  -0.3000000), wk =   0.0320000
        k(   62) = (  -0.5000000   0.3000000   0.5000000), wk =   0.0320000
        k(   63) = (  -0.5000000   0.5000000   0.3000000), wk =   0.0320000

     Dense  grid:    29711 G-vectors     FFT dimensions: (  40,  40,  40)

     Smooth grid:    12533 G-vectors     FFT dimensions: (  30,  30,  30)

     Estimated max dynamical RAM per process >      15.10 MB

     Estimated total dynamical RAM >      60.42 MB

     Initial potential from superposition of free atoms

     starting charge   11.99084, renormalised to   12.00000
     Starting wfcs are   16 randomized atomic wfcs
     Checking if some PAW data can be deallocated... 

     total cpu time spent up to now is        0.7 secs

     Self-consistent Calculation

     iteration #  1     ecut=    35.00 Ry     beta= 0.10
     Davidson diagonalization with overlap
     ethr =  1.00E-02,  avg # of iterations =  3.1

     Threshold (ethr) on eigenvalues was too large:
     Diagonalizing with lowered threshold

     Davidson diagonalization with overlap
     ethr =  1.95E-04,  avg # of iterations =  3.5

     total cpu time spent up to now is        1.7 secs

     total energy              =    -158.00531730 Ry
     Harris-Foulkes estimate   =    -158.00613122 Ry
     estimated scf accuracy    <       0.02272898 Ry

     iteration #  2     ecut=    35.00 Ry     beta= 0.10
     Davidson diagonalization with overlap
     ethr =  1.89E-04,  avg # of iterations =  1.3

     total cpu time spent up to now is        2.1 secs

     total energy              =    -157.99934293 Ry
     Harris-Foulkes estimate   =    -158.00543740 Ry
     estimated scf accuracy    <       0.01959335 Ry

     iteration #  3     ecut=    35.00 Ry     beta= 0.10
     Davidson diagonalization with overlap
     ethr =  1.63E-04,  avg # of iterations =  1.0

     total cpu time spent up to now is        2.5 secs

     total energy              =    -157.99967321 Ry
     Harris-Foulkes estimate   =    -157.99971611 Ry
     estimated scf accuracy    <       0.00009046 Ry

     iteration #  4     ecut=    35.00 Ry     beta= 0.10
     Davidson diagonalization with overlap
     ethr =  7.54E-07,  avg # of iterations =  4.7

     total cpu time spent up to now is        3.2 secs

     total energy              =    -157.99973361 Ry
     Harris-Foulkes estimate   =    -157.99974760 Ry
     estimated scf accuracy    <       0.00005451 Ry

     iteration #  5     ecut=    35.00 Ry     beta= 0.10
     Davidson diagonalization with overlap
     ethr =  4.54E-07,  avg # of iterations =  1.0

     total cpu time spent up to now is        3.6 secs

     total energy              =    -157.99968982 Ry
     Harris-Foulkes estimate   =    -157.99973487 Ry
     estimated scf accuracy    <       0.00004117 Ry

     iteration #  6     ecut=    35.00 Ry     beta= 0.10
     Davidson diagonalization with overlap
     ethr =  3.43E-07,  avg # of iterations =  2.0

     total cpu time spent up to now is        4.1 secs

     End of self-consistent calculation

          k = 0.1000 0.1000 0.1000 (  1560 PWs)   bands (ev):

    -2.9613   4.0415   4.0438   4.0462   7.7416   7.7442   7.7468  10.7607
    10.7636  10.7666

          k = 0.1000 0.1000 0.3000 (  1532 PWs)   bands (ev):

    -2.2389   1.3158   4.7247   4.7281   8.0301   8.0361   8.5371   8.5377
    11.3569  11.7967

          k = 0.1000 0.1000-0.5000 (  1556 PWs)   bands (ev):

    -0.8086  -0.8017   5.9696   5.9703   6.2108   6.2117   9.5133   9.5138
    10.1741  10.1752

          k = 0.1000 0.3000 0.3000 (  1565 PWs)   bands (ev):

    -1.5201   2.0152   2.0183   5.3104   5.5763   8.7948   8.7990   9.1504
    12.1862  12.1926

          k = 0.1000 0.3000-0.5000 (  1560 PWs)   bands (ev):

    -0.0969  -0.0900   3.4040   3.4111   6.7766   6.7842  10.1401  10.1481
    10.4851  10.4917

          k = 0.1000-0.5000-0.5000 (  1548 PWs)   bands (ev):

     1.3154   1.3159   1.3225   1.3236   8.1282   8.1288   8.1361   8.1375
    11.8289  11.8301

          k = 0.3000 0.3000 0.3000 (  1556 PWs)   bands (ev):

    -0.8049   2.7115   2.7139   2.7164   6.1653   6.1680   6.1707   9.5505
    13.0703  13.0737

          k = 0.3000 0.3000-0.5000 (  1554 PWs)   bands (ev):

     0.6115   0.6184   3.9825   3.9831   4.2316   4.2326   7.5264   7.5338
    14.1708  14.5697

          k = 0.3000-0.5000-0.5000 (  1564 PWs)   bands (ev):

     2.0167   2.0171   2.0237   2.0249   5.4860   5.4865   5.4933   5.4945
    15.6220  15.6266

          k =-0.5000-0.5000-0.5000 (  1568 PWs)   bands (ev):

     3.3109   3.3112   3.3114   3.3120   3.5278   3.5290   3.5292   3.5296
    19.3114  19.3121

          k =-0.1000-0.1000 0.1000 (  1560 PWs)   bands (ev):

    -2.9613   4.0420   4.0439   4.0457   7.7421   7.7442   7.7463  10.7612
    10.7637  10.7660

          k =-0.1000 0.1000-0.1000 (  1560 PWs)   bands (ev):

    -2.9613   4.0425   4.0438   4.0452   7.7427   7.7442   7.7457  10.7619
    10.7636  10.7653

          k = 0.1000-0.1000-0.1000 (  1560 PWs)   bands (ev):

    -2.9613   4.0422   4.0439   4.0455   7.7423   7.7442   7.7461  10.7615
    10.7636  10.7657

          k =-0.1000-0.1000 0.3000 (  1532 PWs)   bands (ev):

    -2.2389   1.3158   4.7247   4.7281   8.0301   8.0361   8.5371   8.5377
    11.3569  11.7968

          k =-0.1000 0.1000-0.3000 (  1532 PWs)   bands (ev):

    -2.2389   1.3158   4.7256   4.7272   8.0317   8.0345   8.5372   8.5375
    11.3569  11.7969

          k = 0.1000-0.1000-0.3000 (  1532 PWs)   bands (ev):

    -2.2389   1.3158   4.7256   4.7272   8.0317   8.0345   8.5373   8.5375
    11.3569  11.7967

          k = 0.3000-0.1000 0.1000 (  1532 PWs)   bands (ev):

    -2.2389   1.3158   4.7256   4.7272   8.0317   8.0345   8.5372   8.5376
    11.3570  11.7968

          k =-0.3000-0.1000-0.1000 (  1532 PWs)   bands (ev):

    -2.2389   1.3158   4.7250   4.7279   8.0305   8.0357   8.5371   8.5377
    11.3569  11.7967

          k = 0.3000 0.1000-0.1000 (  1532 PWs)   bands (ev):

    -2.2389   1.3158   4.7256   4.7272   8.0317   8.0345   8.5372   8.5376
    11.3570  11.7967

          k =-0.3000 0.1000 0.1000 (  1532 PWs)   bands (ev):

    -2.2389   1.3158   4.7250   4.7279   8.0305   8.0357   8.5371   8.5377
    11.3569  11.7970

          k =-0.1000 0.3000 0.1000 (  1532 PWs)   bands (ev):

    -2.2389   1.3158   4.7261   4.7267   8.0327   8.0335   8.5373   8.5375
    11.3569  11.7965

          k =-0.1000-0.3000-0.1000 (  1532 PWs)   bands (ev):

    -2.2389   1.3158   4.7257   4.7271   8.0317   8.0345   8.5374   8.5374
    11.3570  11.7964

          k = 0.1000 0.3000-0.1000 (  1532 PWs)   bands (ev):

    -2.2389   1.3158   4.7261   4.7267   8.0327   8.0335   8.5373   8.5375
    11.3569  11.7962

          k = 0.1000-0.3000 0.1000 (  1532 PWs)   bands (ev):

    -2.2389   1.3158   4.7257   4.7271   8.0317   8.0345   8.5374   8.5374
    11.3570  11.7964

          k =-0.1000 0.1000 0.5000 (  1556 PWs)   bands (ev):

    -0.8086  -0.8017   5.9697   5.9703   6.2108   6.2118   9.5134   9.5138
    10.1741  10.1753

          k =-0.5000-0.1000 0.1000 (  1556 PWs)   bands (ev):

    -0.8056  -0.8046   5.9698   5.9703   6.2108   6.2116   9.5134   9.5137
    10.1742  10.1751

          k = 0.5000-0.1000-0.1000 (  1556 PWs)   bands (ev):

    -0.8056  -0.8046   5.9698   5.9703   6.2108   6.2116   9.5134   9.5137
    10.1742  10.1751

          k =-0.1000-0.5000 0.1000 (  1556 PWs)   bands (ev):

    -0.8053  -0.8049   5.9700   5.9702   6.2110   6.2114   9.5135   9.5136
    10.1744  10.1749

          k =-0.1000 0.5000-0.1000 (  1556 PWs)   bands (ev):

    -0.8053  -0.8049   5.9699   5.9702   6.2111   6.2114   9.5135   9.5137
    10.1745  10.1749

          k =-0.1000-0.3000 0.3000 (  1565 PWs)   bands (ev):

    -1.5201   2.0159   2.0176   5.3104   5.5763   8.7957   8.7981   9.1504
    12.1868  12.1911

          k =-0.1000 0.3000-0.3000 (  1565 PWs)   bands (ev):

    -1.5201   2.0159   2.0176   5.3104   5.5763   8.7957   8.7981   9.1504
    12.1877  12.1906

          k = 0.1000-0.3000-0.3000 (  1565 PWs)   bands (ev):

    -1.5201   2.0152   2.0183   5.3104   5.5763   8.7947   8.7990   9.1504
    12.1846  12.1917

          k = 0.3000 0.1000-0.3000 (  1565 PWs)   bands (ev):

    -1.5201   2.0165   2.0170   5.3104   5.5763   8.7965   8.7973   9.1504
    12.1876  12.1897

          k =-0.3000-0.1000-0.3000 (  1565 PWs)   bands (ev):

    -1.5201   2.0160   2.0175   5.3104   5.5763   8.7957   8.7980   9.1504
    12.1876  12.1902

          k = 0.3000-0.1000 0.3000 (  1565 PWs)   bands (ev):

    -1.5201   2.0160   2.0175   5.3104   5.5763   8.7957   8.7980   9.1504
    12.1873  12.1910

          k =-0.3000 0.1000 0.3000 (  1565 PWs)   bands (ev):

    -1.5201   2.0165   2.0170   5.3104   5.5763   8.7965   8.7972   9.1504
    12.1888  12.1901

          k = 0.3000-0.3000 0.1000 (  1565 PWs)   bands (ev):

    -1.5201   2.0160   2.0176   5.3104   5.5763   8.7957   8.7980   9.1504
    12.1878  12.1908

          k =-0.3000-0.3000-0.1000 (  1565 PWs)   bands (ev):

    -1.5201   2.0150   2.0185   5.3104   5.5763   8.7944   8.7994   9.1504
    12.1857  12.1928

          k = 0.3000 0.3000-0.1000 (  1565 PWs)   bands (ev):

    -1.5201   2.0150   2.0185   5.3104   5.5763   8.7944   8.7994   9.1504
    12.1857  12.1926

          k =-0.3000 0.3000 0.1000 (  1565 PWs)   bands (ev):

    -1.5201   2.0160   2.0176   5.3104   5.5763   8.7957   8.7980   9.1504
    12.1878  12.1906

          k =-0.1000 0.3000 0.5000 (  1560 PWs)   bands (ev):

    -0.0969  -0.0900   3.4040   3.4111   6.7766   6.7842  10.1401  10.1481
    10.4851  10.4917

          k = 0.3000 0.1000 0.5000 (  1560 PWs)   bands (ev):

    -0.0969  -0.0900   3.4040   3.4111   6.7766   6.7842  10.1401  10.1481
    10.4851  10.4917

          k = 0.3000-0.1000-0.5000 (  1560 PWs)   bands (ev):

    -0.0969  -0.0900   3.4040   3.4111   6.7766   6.7842  10.1401  10.1481
    10.4851  10.4917

          k =-0.5000-0.3000 0.1000 (  1560 PWs)   bands (ev):

    -0.0939  -0.0929   3.4070   3.4080   6.7799   6.7809  10.1436  10.1447
    10.4880  10.4888

          k = 0.5000-0.3000-0.1000 (  1560 PWs)   bands (ev):

    -0.0939  -0.0929   3.4070   3.4080   6.7799   6.7809  10.1436  10.1446
    10.4880  10.4889

          k =-0.1000-0.5000 0.3000 (  1560 PWs)   bands (ev):

    -0.0937  -0.0932   3.4073   3.4078   6.7802   6.7807  10.1439  10.1444
    10.4882  10.4886

          k =-0.1000 0.5000-0.3000 (  1560 PWs)   bands (ev):

    -0.0937  -0.0932   3.4073   3.4078   6.7802   6.7807  10.1439  10.1444
    10.4882  10.4886

          k = 0.3000-0.5000 0.1000 (  1560 PWs)   bands (ev):

    -0.0937  -0.0932   3.4073   3.4078   6.7802   6.7807  10.1439  10.1444
    10.4882  10.4886

          k = 0.3000 0.5000-0.1000 (  1560 PWs)   bands (ev):

    -0.0937  -0.0932   3.4073   3.4078   6.7802   6.7807  10.1438  10.1444
    10.4882  10.4886

          k =-0.5000 0.1000 0.3000 (  1560 PWs)   bands (ev):

    -0.0939  -0.0929   3.4071   3.4080   6.7799   6.7809  10.1436  10.1446
    10.4880  10.4889

          k = 0.5000-0.1000 0.3000 (  1560 PWs)   bands (ev):

    -0.0939  -0.0929   3.4071   3.4080   6.7799   6.7809  10.1436  10.1447
    10.4880  10.4888

          k =-0.5000 0.1000 0.5000 (  1548 PWs)   bands (ev):

     1.3155   1.3162   1.3222   1.3236   8.1284   8.1291   8.1357   8.1374
    11.8306  11.8341

          k =-0.5000 0.5000 0.1000 (  1548 PWs)   bands (ev):

     1.3174   1.3185   1.3201   1.3214   8.1301   8.1315   8.1337   8.1352
    11.8297  11.8304

          k =-0.3000-0.3000 0.3000 (  1556 PWs)   bands (ev):

    -0.8049   2.7119   2.7140   2.7159   6.1658   6.1680   6.1701   9.5505
    13.0708  13.0727

          k =-0.3000 0.3000-0.3000 (  1556 PWs)   bands (ev):

    -0.8049   2.7125   2.7139   2.7154   6.1665   6.1680   6.1695   9.5505
    13.0711  13.0725

          k = 0.3000-0.3000-0.3000 (  1556 PWs)   bands (ev):

    -0.8049   2.7121   2.7140   2.7157   6.1661   6.1680   6.1699   9.5504
    13.0706  13.0725

          k =-0.3000 0.3000 0.5000 (  1554 PWs)   bands (ev):

     0.6114   0.6184   3.9826   3.9831   4.2316   4.2326   7.5264   7.5338
    14.1707  14.5704

          k =-0.5000-0.3000 0.3000 (  1554 PWs)   bands (ev):

     0.6144   0.6154   3.9827   3.9831   4.2316   4.2324   7.5296   7.5306
    14.5691  14.5702

          k = 0.5000-0.3000-0.3000 (  1554 PWs)   bands (ev):

     0.6144   0.6154   3.9827   3.9831   4.2316   4.2324   7.5296   7.5306
    14.1707  14.5702

          k =-0.3000-0.5000 0.3000 (  1554 PWs)   bands (ev):

     0.6147   0.6152   3.9828   3.9830   4.2318   4.2322   7.5299   7.5304
    14.5694  14.5699

          k =-0.3000 0.5000-0.3000 (  1554 PWs)   bands (ev):

     0.6147   0.6152   3.9827   3.9830   4.2319   4.2322   7.5299   7.5304
    14.5690  14.5699

          k =-0.5000 0.3000 0.5000 (  1564 PWs)   bands (ev):

     2.0167   2.0174   2.0235   2.0248   5.4861   5.4868   5.4930   5.4944
    15.6237  15.6261

          k =-0.5000 0.5000 0.3000 (  1564 PWs)   bands (ev):

     2.0187   2.0198   2.0213   2.0226   5.4881   5.4892   5.4908   5.4922
    15.6244  15.6256

     the Fermi energy is     8.0544 ev

!    total energy              =    -157.99969961 Ry
     Harris-Foulkes estimate   =    -157.99969980 Ry
     estimated scf accuracy    <       0.00000096 Ry

     total all-electron energy =     -1942.570822 Ry

     The total energy is the sum of the following terms:

     one-electron contribution =      12.66595313 Ry
     hartree contribution      =       0.02379340 Ry
     xc contribution           =     -10.36296559 Ry
     ewald contribution        =     -21.61650269 Ry
     one-center paw contrib.   =    -138.70816188 Ry
     smearing contrib. (-TS)   =      -0.00181597 Ry

     convergence has been achieved in   6 iterations

     Forces acting on atoms (cartesian axes, Ry/au):

     atom    1 type  1   force =     0.00005642   -0.00004764    0.00020305
     atom    2 type  1   force =    -0.00015258    0.00016314    0.00020560
     atom    3 type  1   force =     0.00003689    0.00005341   -0.00029994
     atom    4 type  1   force =     0.00005927   -0.00016891   -0.00010871

     Total force =     0.000526     Total SCF correction =     0.000223
     SCF correction compared to forces is large: reduce conv_thr to get better values


     Computing stress (Cartesian axis) and pressure

          total   stress  (Ry/bohr**3)                   (kbar)     P=   -1.05
  -0.00000712   0.00000001   0.00000001         -1.05      0.00      0.00
   0.00000001  -0.00000710   0.00000000          0.00     -1.04      0.00
   0.00000001   0.00000000  -0.00000711          0.00      0.00     -1.05


     Writing output data file fe_scf_fcc_2.save/

     init_run     :      0.32s CPU      0.34s WALL (       1 calls)
     electrons    :      3.23s CPU      3.47s WALL (       1 calls)
     forces       :      0.07s CPU      0.07s WALL (       1 calls)
     stress       :      0.14s CPU      0.14s WALL (       1 calls)

     Called by init_run:
     wfcinit      :      0.22s CPU      0.23s WALL (       1 calls)
     potinit      :      0.04s CPU      0.04s WALL (       1 calls)
     hinit0       :      0.05s CPU      0.05s WALL (       1 calls)

     Called by electrons:
     c_bands      :      2.55s CPU      2.75s WALL (       7 calls)
     sum_band     :      0.42s CPU      0.46s WALL (       7 calls)
     v_of_rho     :      0.05s CPU      0.05s WALL (       7 calls)
     newd         :      0.03s CPU      0.03s WALL (       7 calls)
     PAW_pot      :      0.21s CPU      0.21s WALL (       7 calls)
     mix_rho      :      0.00s CPU      0.00s WALL (       7 calls)

     Called by c_bands:
     init_us_2    :      0.06s CPU      0.06s WALL (    1071 calls)
     cegterg      :      2.47s CPU      2.66s WALL (     441 calls)

     Called by sum_band:
     sum_band:bec :      0.00s CPU      0.00s WALL (     441 calls)
     addusdens    :      0.02s CPU      0.02s WALL (       7 calls)

     Called by *egterg:
     h_psi        :      2.00s CPU      2.16s WALL (    1548 calls)
     s_psi        :      0.13s CPU      0.14s WALL (    1548 calls)
     g_psi        :      0.01s CPU      0.01s WALL (    1044 calls)
     cdiaghg      :      0.18s CPU      0.19s WALL (    1422 calls)

     Called by h_psi:
     h_psi:pot    :      2.00s CPU      2.16s WALL (    1548 calls)
     h_psi:calbec :      0.18s CPU      0.19s WALL (    1548 calls)
     vloc_psi     :      1.69s CPU      1.83s WALL (    1548 calls)
     add_vuspsi   :      0.13s CPU      0.14s WALL (    1548 calls)

     General routines
     calbec       :      0.29s CPU      0.31s WALL (    2304 calls)
     fft          :      0.03s CPU      0.03s WALL (     115 calls)
     ffts         :      0.00s CPU      0.00s WALL (      14 calls)
     fftw         :      1.87s CPU      2.02s WALL (   29338 calls)
     interpolate  :      0.00s CPU      0.00s WALL (       7 calls)

     Parallel routines
     fft_scatt_xy :      0.21s CPU      0.23s WALL (   29467 calls)
     fft_scatt_yz :      0.65s CPU      0.70s WALL (   29467 calls)

     PWSCF        :      4.10s CPU      4.38s WALL


   This run was terminated on:   6:41:58  10Apr2020            

=------------------------------------------------------------------------------=
   JOB DONE.
=------------------------------------------------------------------------------=
