
     Program PWSCF v.6.4.1 starts on 10Apr2020 at  6:24: 3 

     This program is part of the open-source Quantum ESPRESSO suite
     for quantum simulation of materials; please cite
         "P. Giannozzi et al., J. Phys.:Condens. Matter 21 395502 (2009);
         "P. Giannozzi et al., J. Phys.:Condens. Matter 29 465901 (2017);
          URL http://www.quantum-espresso.org", 
     in publications or presentations arising from this work. More details at
     http://www.quantum-espresso.org/quote

     Parallel version (MPI), running on     4 processors

     MPI processes distributed on     1 nodes
     R & G space division:  proc/nbgrp/npool/nimage =       4
     Reading input from wd/ecut/file_000274.in
Warning: card &IONS ignored
Warning: card ION_DYNAMICS = 'BFGS', ignored
Warning: card / ignored
Warning: card &CELL ignored
Warning: card CELL_DYNAMICS = 'BFGS', ignored
Warning: card CELL_FACTOR = 2.0, ignored
Warning: card PRESS = 0.0, ignored
Warning: card / ignored

     Current dimensions of program PWSCF are:
     Max number of different atomic species (ntypx) = 10
     Max number of k-points (npk) =  40000
     Max angular momentum in pseudopotentials (lmaxx) =  3
               file Al.pbe-nl-kjpaw_psl.1.0.0.UPF: wavefunction(s)  3S 3P renormalized

     Subspace diagonalization in iterative solution of the eigenvalue problem:
     a serial algorithm will be used


     Parallelization info
     --------------------
     sticks:   dense  smooth     PW     G-vecs:    dense   smooth      PW
     Min         233     233    100                 5311     5311    1471
     Max         234     234    101                 5313     5313    1472
     Sum         933     933    401                21247    21247    5887



     bravais-lattice index     =            0
     lattice parameter (alat)  =       7.6356  a.u.
     unit-cell volume          =     445.1737 (a.u.)^3
     number of atoms/cell      =            4
     number of atomic types    =            1
     number of electrons       =        12.00
     number of Kohn-Sham states=           10
     kinetic-energy cutoff     =      72.5000  Ry
     charge density cutoff     =     200.0000  Ry
     convergence threshold     =      1.0E-06
     mixing beta               =       0.1000
     number of iterations used =           10  TF        mixing
     Exchange-correlation      = SLA PW PBX PBC ( 1  4  3  4 0 0)

     celldm(1)=   7.635600  celldm(2)=   0.000000  celldm(3)=   0.000000
     celldm(4)=   0.000000  celldm(5)=   0.000000  celldm(6)=   0.000000

     crystal axes: (cart. coord. in units of alat)
               a(1) = (   1.000000   0.000000   0.000000 )  
               a(2) = (   0.000000   1.000000   0.000000 )  
               a(3) = (   0.000000   0.000000   1.000000 )  

     reciprocal axes: (cart. coord. in units 2 pi/alat)
               b(1) = (  1.000000  0.000000  0.000000 )  
               b(2) = (  0.000000  1.000000  0.000000 )  
               b(3) = (  0.000000  0.000000  1.000000 )  


     PseudoPot. # 1 for Al read from file:
     /opt/pp/Al.pbe-nl-kjpaw_psl.1.0.0.UPF
     MD5 check sum: 1b67f78b73fe58c7924490f171ce8a1e
     Pseudo is Projector augmented-wave + core cor, Zval =  3.0
     Generated using "atomic" code by A. Dal Corso v.6.3
     Shape of augmentation charge: PSQ
     Using radial grid of 1135 points,  4 beta functions with: 
                l(1) =   0
                l(2) =   0
                l(3) =   1
                l(4) =   1
     Q(r) pseudized with 0 coefficients 


     atomic species   valence    mass     pseudopotential
        Al             3.00    26.98200     Al( 1.00)

     No symmetry found



   Cartesian axes

     site n.     atom                  positions (alat units)
         1           Al  tau(   1) = (  -0.0000654   0.0000190   0.0001361  )
         2           Al  tau(   2) = (   0.5001592   0.4996200   0.0001406  )
         3           Al  tau(   3) = (   0.4998143   0.0000610   0.5005910  )
         4           Al  tau(   4) = (  -0.0000400   0.5004374   0.5003674  )

     number of k points=    63  Marzari-Vanderbilt smearing, width (Ry)=  0.0200
                       cart. coord. in units 2pi/alat
        k(    1) = (   0.1000000   0.1000000   0.1000000), wk =   0.0320000
        k(    2) = (   0.1000000   0.1000000   0.3000000), wk =   0.0320000
        k(    3) = (   0.1000000   0.1000000  -0.5000000), wk =   0.0320000
        k(    4) = (   0.1000000   0.3000000   0.3000000), wk =   0.0320000
        k(    5) = (   0.1000000   0.3000000  -0.5000000), wk =   0.0320000
        k(    6) = (   0.1000000  -0.5000000  -0.5000000), wk =   0.0320000
        k(    7) = (   0.3000000   0.3000000   0.3000000), wk =   0.0320000
        k(    8) = (   0.3000000   0.3000000  -0.5000000), wk =   0.0320000
        k(    9) = (   0.3000000  -0.5000000  -0.5000000), wk =   0.0320000
        k(   10) = (  -0.5000000  -0.5000000  -0.5000000), wk =   0.0160000
        k(   11) = (  -0.1000000  -0.1000000   0.1000000), wk =   0.0320000
        k(   12) = (  -0.1000000   0.1000000  -0.1000000), wk =   0.0320000
        k(   13) = (   0.1000000  -0.1000000  -0.1000000), wk =   0.0320000
        k(   14) = (  -0.1000000  -0.1000000   0.3000000), wk =   0.0320000
        k(   15) = (  -0.1000000   0.1000000  -0.3000000), wk =   0.0320000
        k(   16) = (   0.1000000  -0.1000000  -0.3000000), wk =   0.0320000
        k(   17) = (   0.3000000  -0.1000000   0.1000000), wk =   0.0320000
        k(   18) = (  -0.3000000  -0.1000000  -0.1000000), wk =   0.0320000
        k(   19) = (   0.3000000   0.1000000  -0.1000000), wk =   0.0320000
        k(   20) = (  -0.3000000   0.1000000   0.1000000), wk =   0.0320000
        k(   21) = (  -0.1000000   0.3000000   0.1000000), wk =   0.0320000
        k(   22) = (  -0.1000000  -0.3000000  -0.1000000), wk =   0.0320000
        k(   23) = (   0.1000000   0.3000000  -0.1000000), wk =   0.0320000
        k(   24) = (   0.1000000  -0.3000000   0.1000000), wk =   0.0320000
        k(   25) = (  -0.1000000   0.1000000   0.5000000), wk =   0.0320000
        k(   26) = (  -0.5000000  -0.1000000   0.1000000), wk =   0.0320000
        k(   27) = (   0.5000000  -0.1000000  -0.1000000), wk =   0.0320000
        k(   28) = (  -0.1000000  -0.5000000   0.1000000), wk =   0.0320000
        k(   29) = (  -0.1000000   0.5000000  -0.1000000), wk =   0.0320000
        k(   30) = (  -0.1000000  -0.3000000   0.3000000), wk =   0.0320000
        k(   31) = (  -0.1000000   0.3000000  -0.3000000), wk =   0.0320000
        k(   32) = (   0.1000000  -0.3000000  -0.3000000), wk =   0.0320000
        k(   33) = (   0.3000000   0.1000000  -0.3000000), wk =   0.0320000
        k(   34) = (  -0.3000000  -0.1000000  -0.3000000), wk =   0.0320000
        k(   35) = (   0.3000000  -0.1000000   0.3000000), wk =   0.0320000
        k(   36) = (  -0.3000000   0.1000000   0.3000000), wk =   0.0320000
        k(   37) = (   0.3000000  -0.3000000   0.1000000), wk =   0.0320000
        k(   38) = (  -0.3000000  -0.3000000  -0.1000000), wk =   0.0320000
        k(   39) = (   0.3000000   0.3000000  -0.1000000), wk =   0.0320000
        k(   40) = (  -0.3000000   0.3000000   0.1000000), wk =   0.0320000
        k(   41) = (  -0.1000000   0.3000000   0.5000000), wk =   0.0320000
        k(   42) = (   0.3000000   0.1000000   0.5000000), wk =   0.0320000
        k(   43) = (   0.3000000  -0.1000000  -0.5000000), wk =   0.0320000
        k(   44) = (  -0.5000000  -0.3000000   0.1000000), wk =   0.0320000
        k(   45) = (   0.5000000  -0.3000000  -0.1000000), wk =   0.0320000
        k(   46) = (  -0.1000000  -0.5000000   0.3000000), wk =   0.0320000
        k(   47) = (  -0.1000000   0.5000000  -0.3000000), wk =   0.0320000
        k(   48) = (   0.3000000  -0.5000000   0.1000000), wk =   0.0320000
        k(   49) = (   0.3000000   0.5000000  -0.1000000), wk =   0.0320000
        k(   50) = (  -0.5000000   0.1000000   0.3000000), wk =   0.0320000
        k(   51) = (   0.5000000  -0.1000000   0.3000000), wk =   0.0320000
        k(   52) = (  -0.5000000   0.1000000   0.5000000), wk =   0.0320000
        k(   53) = (  -0.5000000   0.5000000   0.1000000), wk =   0.0320000
        k(   54) = (  -0.3000000  -0.3000000   0.3000000), wk =   0.0320000
        k(   55) = (  -0.3000000   0.3000000  -0.3000000), wk =   0.0320000
        k(   56) = (   0.3000000  -0.3000000  -0.3000000), wk =   0.0320000
        k(   57) = (  -0.3000000   0.3000000   0.5000000), wk =   0.0320000
        k(   58) = (  -0.5000000  -0.3000000   0.3000000), wk =   0.0320000
        k(   59) = (   0.5000000  -0.3000000  -0.3000000), wk =   0.0320000
        k(   60) = (  -0.3000000  -0.5000000   0.3000000), wk =   0.0320000
        k(   61) = (  -0.3000000   0.5000000  -0.3000000), wk =   0.0320000
        k(   62) = (  -0.5000000   0.3000000   0.5000000), wk =   0.0320000
        k(   63) = (  -0.5000000   0.5000000   0.3000000), wk =   0.0320000

     Dense  grid:    21247 G-vectors     FFT dimensions: (  36,  36,  36)

     Estimated max dynamical RAM per process >      19.96 MB

     Estimated total dynamical RAM >      79.85 MB

     Initial potential from superposition of free atoms

     starting charge   11.99084, renormalised to   12.00000
     Starting wfcs are   16 randomized atomic wfcs
     Checking if some PAW data can be deallocated... 

     total cpu time spent up to now is        1.0 secs

     Self-consistent Calculation

     iteration #  1     ecut=    72.50 Ry     beta= 0.10
     Davidson diagonalization with overlap
     ethr =  1.00E-02,  avg # of iterations =  3.1

     Threshold (ethr) on eigenvalues was too large:
     Diagonalizing with lowered threshold

     Davidson diagonalization with overlap
     ethr =  1.95E-04,  avg # of iterations =  3.7

     total cpu time spent up to now is        3.4 secs

     total energy              =    -158.00557840 Ry
     Harris-Foulkes estimate   =    -158.00638696 Ry
     estimated scf accuracy    <       0.02271621 Ry

     iteration #  2     ecut=    72.50 Ry     beta= 0.10
     Davidson diagonalization with overlap
     ethr =  1.89E-04,  avg # of iterations =  1.0

     total cpu time spent up to now is        4.2 secs

     total energy              =    -157.99958415 Ry
     Harris-Foulkes estimate   =    -158.00567501 Ry
     estimated scf accuracy    <       0.01960478 Ry

     iteration #  3     ecut=    72.50 Ry     beta= 0.10
     Davidson diagonalization with overlap
     ethr =  1.63E-04,  avg # of iterations =  1.0

     total cpu time spent up to now is        5.1 secs

     total energy              =    -157.99993018 Ry
     Harris-Foulkes estimate   =    -157.99996545 Ry
     estimated scf accuracy    <       0.00007983 Ry

     iteration #  4     ecut=    72.50 Ry     beta= 0.10
     Davidson diagonalization with overlap
     ethr =  6.65E-07,  avg # of iterations =  3.9

     total cpu time spent up to now is        6.5 secs

     total energy              =    -157.99999260 Ry
     Harris-Foulkes estimate   =    -158.00000527 Ry
     estimated scf accuracy    <       0.00005465 Ry

     iteration #  5     ecut=    72.50 Ry     beta= 0.10
     Davidson diagonalization with overlap
     ethr =  4.55E-07,  avg # of iterations =  1.0

     total cpu time spent up to now is        7.4 secs

     total energy              =    -157.99995129 Ry
     Harris-Foulkes estimate   =    -157.99999389 Ry
     estimated scf accuracy    <       0.00003990 Ry

     iteration #  6     ecut=    72.50 Ry     beta= 0.10
     Davidson diagonalization with overlap
     ethr =  3.32E-07,  avg # of iterations =  2.0

     total cpu time spent up to now is        8.4 secs

     End of self-consistent calculation

          k = 0.1000 0.1000 0.1000 (  4659 PWs)   bands (ev):

    -2.9616   4.0413   4.0436   4.0459   7.7411   7.7437   7.7463  10.7599
    10.7628  10.7658

          k = 0.1000 0.1000 0.3000 (  4654 PWs)   bands (ev):

    -2.2392   1.3155   4.7244   4.7278   8.0295   8.0356   8.5366   8.5372
    11.3559  11.7961

          k = 0.1000 0.1000-0.5000 (  4632 PWs)   bands (ev):

    -0.8088  -0.8019   5.9693   5.9700   6.2105   6.2114   9.5127   9.5131
    10.1740  10.1750

          k = 0.1000 0.3000 0.3000 (  4642 PWs)   bands (ev):

    -1.5204   2.0149   2.0181   5.3101   5.5760   8.7942   8.7985   9.1499
    12.1852  12.1916

          k = 0.1000 0.3000-0.5000 (  4616 PWs)   bands (ev):

    -0.0972  -0.0902   3.4037   3.4108   6.7763   6.7838  10.1394  10.1474
    10.4846  10.4911

          k = 0.1000-0.5000-0.5000 (  4640 PWs)   bands (ev):

     1.3152   1.3156   1.3222   1.3233   8.1277   8.1283   8.1356   8.1370
    11.8262  11.8317

          k = 0.3000 0.3000 0.3000 (  4635 PWs)   bands (ev):

    -0.8052   2.7112   2.7137   2.7161   6.1649   6.1676   6.1703   9.5499
    13.0694  13.0728

          k = 0.3000 0.3000-0.5000 (  4642 PWs)   bands (ev):

     0.6112   0.6181   3.9823   3.9829   4.2312   4.2321   7.5259   7.5334
    14.5683  14.5694

          k = 0.3000-0.5000-0.5000 (  4644 PWs)   bands (ev):

     2.0164   2.0169   2.0235   2.0246   5.4856   5.4861   5.4929   5.4941
    15.6200  15.6275

          k =-0.5000-0.5000-0.5000 (  4680 PWs)   bands (ev):

     3.3108   3.3110   3.3112   3.3118   3.5274   3.5285   3.5287   3.5291
    19.3111  19.3117

          k =-0.1000-0.1000 0.1000 (  4659 PWs)   bands (ev):

    -2.9616   4.0417   4.0436   4.0454   7.7416   7.7437   7.7458  10.7604
    10.7629  10.7652

          k =-0.1000 0.1000-0.1000 (  4659 PWs)   bands (ev):

    -2.9616   4.0423   4.0435   4.0449   7.7422   7.7437   7.7452  10.7611
    10.7628  10.7645

          k = 0.1000-0.1000-0.1000 (  4659 PWs)   bands (ev):

    -2.9616   4.0419   4.0436   4.0452   7.7418   7.7437   7.7455  10.7607
    10.7629  10.7649

          k =-0.1000-0.1000 0.3000 (  4654 PWs)   bands (ev):

    -2.2392   1.3155   4.7244   4.7278   8.0295   8.0356   8.5366   8.5372
    11.3559  11.7959

          k =-0.1000 0.1000-0.3000 (  4654 PWs)   bands (ev):

    -2.2392   1.3155   4.7253   4.7269   8.0312   8.0340   8.5367   8.5370
    11.3559  11.7960

          k = 0.1000-0.1000-0.3000 (  4654 PWs)   bands (ev):

    -2.2392   1.3155   4.7253   4.7269   8.0311   8.0339   8.5367   8.5370
    11.3559  11.7962

          k = 0.3000-0.1000 0.1000 (  4654 PWs)   bands (ev):

    -2.2392   1.3155   4.7253   4.7269   8.0311   8.0340   8.5367   8.5371
    11.3560  11.7965

          k =-0.3000-0.1000-0.1000 (  4654 PWs)   bands (ev):

    -2.2392   1.3155   4.7246   4.7276   8.0300   8.0351   8.5366   8.5372
    11.3559  11.7961

          k = 0.3000 0.1000-0.1000 (  4654 PWs)   bands (ev):

    -2.2392   1.3155   4.7253   4.7269   8.0311   8.0340   8.5367   8.5371
    11.3559  11.7975

          k =-0.3000 0.1000 0.1000 (  4654 PWs)   bands (ev):

    -2.2392   1.3155   4.7246   4.7276   8.0300   8.0351   8.5366   8.5372
    11.3559  11.7964

          k =-0.1000 0.3000 0.1000 (  4654 PWs)   bands (ev):

    -2.2392   1.3155   4.7258   4.7264   8.0321   8.0330   8.5368   8.5370
    11.3559  11.7956

          k =-0.1000-0.3000-0.1000 (  4654 PWs)   bands (ev):

    -2.2392   1.3155   4.7254   4.7268   8.0311   8.0340   8.5368   8.5369
    11.3559  11.7955

          k = 0.1000 0.3000-0.1000 (  4654 PWs)   bands (ev):

    -2.2392   1.3155   4.7258   4.7264   8.0321   8.0330   8.5368   8.5370
    11.3559  11.7957

          k = 0.1000-0.3000 0.1000 (  4654 PWs)   bands (ev):

    -2.2392   1.3155   4.7254   4.7268   8.0311   8.0340   8.5368   8.5369
    11.3559  11.7955

          k =-0.1000 0.1000 0.5000 (  4632 PWs)   bands (ev):

    -0.8088  -0.8019   5.9693   5.9699   6.2104   6.2114   9.5127   9.5131
    10.1739  10.1750

          k =-0.5000-0.1000 0.1000 (  4632 PWs)   bands (ev):

    -0.8059  -0.8049   5.9694   5.9699   6.2105   6.2112   9.5128   9.5131
    10.1740  10.1749

          k = 0.5000-0.1000-0.1000 (  4632 PWs)   bands (ev):

    -0.8059  -0.8049   5.9695   5.9699   6.2105   6.2112   9.5128   9.5131
    10.1740  10.1749

          k =-0.1000-0.5000 0.1000 (  4632 PWs)   bands (ev):

    -0.8056  -0.8052   5.9696   5.9698   6.2107   6.2111   9.5129   9.5130
    10.1742  10.1747

          k =-0.1000 0.5000-0.1000 (  4632 PWs)   bands (ev):

    -0.8056  -0.8052   5.9695   5.9698   6.2107   6.2110   9.5128   9.5130
    10.1743  10.1746

          k =-0.1000-0.3000 0.3000 (  4642 PWs)   bands (ev):

    -1.5204   2.0156   2.0174   5.3101   5.5759   8.7952   8.7975   9.1499
    12.1867  12.1902

          k =-0.1000 0.3000-0.3000 (  4642 PWs)   bands (ev):

    -1.5204   2.0156   2.0174   5.3101   5.5760   8.7952   8.7975   9.1499
    12.1863  12.1897

          k = 0.1000-0.3000-0.3000 (  4642 PWs)   bands (ev):

    -1.5204   2.0149   2.0181   5.3101   5.5759   8.7942   8.7985   9.1499
    12.1843  12.1916

          k = 0.3000 0.1000-0.3000 (  4642 PWs)   bands (ev):

    -1.5204   2.0162   2.0168   5.3101   5.5760   8.7960   8.7967   9.1499
    12.1880  12.1890

          k =-0.3000-0.1000-0.3000 (  4642 PWs)   bands (ev):

    -1.5204   2.0157   2.0173   5.3101   5.5759   8.7952   8.7975   9.1499
    12.1866  12.1898

          k = 0.3000-0.1000 0.3000 (  4642 PWs)   bands (ev):

    -1.5204   2.0157   2.0173   5.3101   5.5759   8.7952   8.7975   9.1499
    12.1865  12.1900

          k =-0.3000 0.1000 0.3000 (  4642 PWs)   bands (ev):

    -1.5204   2.0162   2.0168   5.3101   5.5760   8.7960   8.7967   9.1499
    12.1862  12.1891

          k = 0.3000-0.3000 0.1000 (  4642 PWs)   bands (ev):

    -1.5204   2.0157   2.0173   5.3101   5.5760   8.7952   8.7975   9.1499
    12.1861  12.1902

          k =-0.3000-0.3000-0.1000 (  4642 PWs)   bands (ev):

    -1.5204   2.0147   2.0183   5.3101   5.5760   8.7939   8.7989   9.1499
    12.1841  12.1919

          k = 0.3000 0.3000-0.1000 (  4642 PWs)   bands (ev):

    -1.5204   2.0147   2.0183   5.3101   5.5759   8.7939   8.7989   9.1499
    12.1847  12.1916

          k =-0.3000 0.3000 0.1000 (  4642 PWs)   bands (ev):

    -1.5204   2.0157   2.0173   5.3101   5.5759   8.7952   8.7975   9.1499
    12.1867  12.1899

          k =-0.1000 0.3000 0.5000 (  4616 PWs)   bands (ev):

    -0.0972  -0.0902   3.4037   3.4108   6.7763   6.7838  10.1394  10.1474
    10.4846  10.4911

          k = 0.3000 0.1000 0.5000 (  4616 PWs)   bands (ev):

    -0.0972  -0.0902   3.4037   3.4108   6.7763   6.7838  10.1394  10.1474
    10.4846  10.4911

          k = 0.3000-0.1000-0.5000 (  4616 PWs)   bands (ev):

    -0.0972  -0.0902   3.4037   3.4108   6.7763   6.7838  10.1394  10.1474
    10.4846  10.4911

          k =-0.5000-0.3000 0.1000 (  4616 PWs)   bands (ev):

    -0.0942  -0.0932   3.4068   3.4077   6.7795   6.7805  10.1429  10.1439
    10.4874  10.4883

          k = 0.5000-0.3000-0.1000 (  4616 PWs)   bands (ev):

    -0.0942  -0.0932   3.4068   3.4077   6.7795   6.7805  10.1429  10.1439
    10.4874  10.4883

          k =-0.1000-0.5000 0.3000 (  4616 PWs)   bands (ev):

    -0.0939  -0.0935   3.4070   3.4075   6.7798   6.7803  10.1432  10.1437
    10.4876  10.4881

          k =-0.1000 0.5000-0.3000 (  4616 PWs)   bands (ev):

    -0.0939  -0.0935   3.4070   3.4075   6.7798   6.7803  10.1432  10.1437
    10.4876  10.4881

          k = 0.3000-0.5000 0.1000 (  4616 PWs)   bands (ev):

    -0.0939  -0.0935   3.4070   3.4075   6.7798   6.7803  10.1432  10.1437
    10.4876  10.4881

          k = 0.3000 0.5000-0.1000 (  4616 PWs)   bands (ev):

    -0.0939  -0.0935   3.4070   3.4075   6.7798   6.7803  10.1432  10.1437
    10.4876  10.4881

          k =-0.5000 0.1000 0.3000 (  4616 PWs)   bands (ev):

    -0.0942  -0.0932   3.4068   3.4077   6.7795   6.7805  10.1429  10.1439
    10.4874  10.4883

          k = 0.5000-0.1000 0.3000 (  4616 PWs)   bands (ev):

    -0.0942  -0.0932   3.4068   3.4077   6.7795   6.7805  10.1429  10.1439
    10.4874  10.4883

          k =-0.5000 0.1000 0.5000 (  4640 PWs)   bands (ev):

     1.3152   1.3159   1.3219   1.3233   8.1279   8.1286   8.1352   8.1369
    11.8271  11.8288

          k =-0.5000 0.5000 0.1000 (  4640 PWs)   bands (ev):

     1.3172   1.3183   1.3198   1.3211   8.1296   8.1310   8.1332   8.1347
    11.8292  11.8303

          k =-0.3000-0.3000 0.3000 (  4635 PWs)   bands (ev):

    -0.8052   2.7117   2.7137   2.7156   6.1654   6.1677   6.1697   9.5499
    13.0696  13.0732

          k =-0.3000 0.3000-0.3000 (  4635 PWs)   bands (ev):

    -0.8052   2.7123   2.7136   2.7151   6.1661   6.1676   6.1691   9.5499
    13.0703  13.0724

          k = 0.3000-0.3000-0.3000 (  4635 PWs)   bands (ev):

    -0.8052   2.7119   2.7137   2.7154   6.1657   6.1676   6.1695   9.5499
    13.0698  13.0724

          k =-0.3000 0.3000 0.5000 (  4642 PWs)   bands (ev):

     0.6112   0.6181   3.9823   3.9829   4.2312   4.2321   7.5259   7.5334
    14.5682  14.5695

          k =-0.5000-0.3000 0.3000 (  4642 PWs)   bands (ev):

     0.6142   0.6151   3.9824   3.9829   4.2313   4.2320   7.5292   7.5302
    14.5687  14.5694

          k = 0.5000-0.3000-0.3000 (  4642 PWs)   bands (ev):

     0.6142   0.6151   3.9824   3.9829   4.2313   4.2320   7.5292   7.5301
    14.5684  14.5695

          k =-0.3000-0.5000 0.3000 (  4642 PWs)   bands (ev):

     0.6144   0.6149   3.9826   3.9828   4.2314   4.2318   7.5294   7.5299
    14.5687  14.5693

          k =-0.3000 0.5000-0.3000 (  4642 PWs)   bands (ev):

     0.6144   0.6149   3.9825   3.9828   4.2315   4.2318   7.5294   7.5299
    14.5688  14.5692

          k =-0.5000 0.3000 0.5000 (  4644 PWs)   bands (ev):

     2.0165   2.0172   2.0232   2.0245   5.4857   5.4864   5.4926   5.4940
    15.6203  15.6238

          k =-0.5000 0.5000 0.3000 (  4644 PWs)   bands (ev):

     2.0184   2.0195   2.0211   2.0223   5.4877   5.4888   5.4905   5.4918
    15.6226  15.6241

     the Fermi energy is     8.0539 ev

!    total energy              =    -157.99996127 Ry
     Harris-Foulkes estimate   =    -157.99996137 Ry
     estimated scf accuracy    <       0.00000094 Ry

     total all-electron energy =     -1942.571083 Ry

     The total energy is the sum of the following terms:

     one-electron contribution =      12.66550876 Ry
     hartree contribution      =       0.02378561 Ry
     xc contribution           =     -10.36288142 Ry
     ewald contribution        =     -21.61650271 Ry
     one-center paw contrib.   =    -138.70805602 Ry
     smearing contrib. (-TS)   =      -0.00181548 Ry

     convergence has been achieved in   6 iterations

     Forces acting on atoms (cartesian axes, Ry/au):

     atom    1 type  1   force =     0.00005755   -0.00004637    0.00020346
     atom    2 type  1   force =    -0.00015251    0.00016301    0.00020658
     atom    3 type  1   force =     0.00003651    0.00005388   -0.00030015
     atom    4 type  1   force =     0.00005845   -0.00017053   -0.00010989

     Total force =     0.000528     Total SCF correction =     0.000223
     SCF correction compared to forces is large: reduce conv_thr to get better values


     Computing stress (Cartesian axis) and pressure

          total   stress  (Ry/bohr**3)                   (kbar)     P=   -0.87
  -0.00000591   0.00000001   0.00000001         -0.87      0.00      0.00
   0.00000001  -0.00000590   0.00000001          0.00     -0.87      0.00
   0.00000001   0.00000001  -0.00000591          0.00      0.00     -0.87


     Writing output data file fe_scf_fcc_2.save/

     init_run     :      0.62s CPU      0.66s WALL (       1 calls)
     electrons    :      7.11s CPU      7.44s WALL (       1 calls)
     forces       :      0.14s CPU      0.15s WALL (       1 calls)
     stress       :      0.31s CPU      0.31s WALL (       1 calls)

     Called by init_run:
     wfcinit      :      0.51s CPU      0.56s WALL (       1 calls)
     potinit      :      0.04s CPU      0.04s WALL (       1 calls)
     hinit0       :      0.05s CPU      0.05s WALL (       1 calls)

     Called by electrons:
     c_bands      :      5.95s CPU      6.22s WALL (       7 calls)
     sum_band     :      0.92s CPU      0.97s WALL (       7 calls)
     v_of_rho     :      0.04s CPU      0.04s WALL (       7 calls)
     newd         :      0.02s CPU      0.02s WALL (       7 calls)
     PAW_pot      :      0.21s CPU      0.22s WALL (       7 calls)
     mix_rho      :      0.00s CPU      0.00s WALL (       7 calls)

     Called by c_bands:
     init_us_2    :      0.18s CPU      0.18s WALL (    1071 calls)
     cegterg      :      5.68s CPU      5.95s WALL (     441 calls)

     Called by sum_band:
     sum_band:bec :      0.00s CPU      0.00s WALL (     441 calls)
     addusdens    :      0.02s CPU      0.02s WALL (       7 calls)

     Called by *egterg:
     h_psi        :      4.53s CPU      4.76s WALL (    1493 calls)
     s_psi        :      0.38s CPU      0.40s WALL (    1493 calls)
     g_psi        :      0.03s CPU      0.03s WALL (     989 calls)
     cdiaghg      :      0.18s CPU      0.18s WALL (    1367 calls)

     Called by h_psi:
     h_psi:pot    :      4.51s CPU      4.75s WALL (    1493 calls)
     h_psi:calbec :      0.51s CPU      0.54s WALL (    1493 calls)
     vloc_psi     :      3.62s CPU      3.81s WALL (    1493 calls)
     add_vuspsi   :      0.38s CPU      0.40s WALL (    1493 calls)

     General routines
     calbec       :      0.82s CPU      0.86s WALL (    2249 calls)
     fft          :      0.02s CPU      0.03s WALL (     103 calls)
     ffts         :      0.00s CPU      0.00s WALL (       7 calls)
     fftw         :      4.04s CPU      4.24s WALL (   29360 calls)

     Parallel routines
     fft_scatt_xy :      0.32s CPU      0.33s WALL (   29470 calls)
     fft_scatt_yz :      1.26s CPU      1.33s WALL (   29470 calls)

     PWSCF        :      8.54s CPU      8.97s WALL


   This run was terminated on:   6:24:12  10Apr2020            

=------------------------------------------------------------------------------=
   JOB DONE.
=------------------------------------------------------------------------------=
